V -t * -v 1.0a5 -a 0
A -t * -n 1 -p 0 -o 0x7fffffff -c 30 -a 1
A -t * -h 1 -m 1073741823 -s 0
c -t * -i 1 -n Blue
c -t * -i 2 -n Red
n -t * -a 4 -s 4 -S UP -v circle -c black -i black
n -t * -a 0 -s 0 -S UP -v circle -c black -i black
n -t * -a 1 -s 1 -S UP -v circle -c black -i black
n -t * -a 2 -s 2 -S UP -v circle -c black -i black
n -t * -a 3 -s 3 -S UP -v circle -c black -i black
l -t * -s 0 -d 2 -S UP -r 1000000 -D 0.01 -c black -o right-down
l -t * -s 1 -d 2 -S UP -r 2000000 -D 0.01 -c black -o right-up
l -t * -s 2 -d 3 -S UP -r 2000000 -D 0.01 -c black -o right
l -t * -s 3 -d 4 -S UP -r 1000000 -D 0.01 -c black -o right
+ -t 0.5 -s 0 -d 2 -p cbr -e 500 -c 2 -i 0 -a 2 -x {0.0 4.0 0 ------- null}
- -t 0.5 -s 0 -d 2 -p cbr -e 500 -c 2 -i 0 -a 2 -x {0.0 4.0 0 ------- null}
h -t 0.5 -s 0 -d 2 -p cbr -e 500 -c 2 -i 0 -a 2 -x {0.0 4.0 -1 ------- null}
+ -t 0.505 -s 0 -d 2 -p cbr -e 500 -c 2 -i 1 -a 2 -x {0.0 4.0 1 ------- null}
- -t 0.505 -s 0 -d 2 -p cbr -e 500 -c 2 -i 1 -a 2 -x {0.0 4.0 1 ------- null}
h -t 0.505 -s 0 -d 2 -p cbr -e 500 -c 2 -i 1 -a 2 -x {0.0 4.0 -1 ------- null}
+ -t 0.51 -s 0 -d 2 -p cbr -e 500 -c 2 -i 2 -a 2 -x {0.0 4.0 2 ------- null}
- -t 0.51 -s 0 -d 2 -p cbr -e 500 -c 2 -i 2 -a 2 -x {0.0 4.0 2 ------- null}
h -t 0.51 -s 0 -d 2 -p cbr -e 500 -c 2 -i 2 -a 2 -x {0.0 4.0 -1 ------- null}
r -t 0.514 -s 0 -d 2 -p cbr -e 500 -c 2 -i 0 -a 2 -x {0.0 4.0 0 ------- null}
+ -t 0.514 -s 2 -d 3 -p cbr -e 500 -c 2 -i 0 -a 2 -x {0.0 4.0 0 ------- null}
- -t 0.514 -s 2 -d 3 -p cbr -e 500 -c 2 -i 0 -a 2 -x {0.0 4.0 0 ------- null}
h -t 0.514 -s 2 -d 3 -p cbr -e 500 -c 2 -i 0 -a 2 -x {0.0 4.0 -1 ------- null}
+ -t 0.515 -s 0 -d 2 -p cbr -e 500 -c 2 -i 3 -a 2 -x {0.0 4.0 3 ------- null}
- -t 0.515 -s 0 -d 2 -p cbr -e 500 -c 2 -i 3 -a 2 -x {0.0 4.0 3 ------- null}
h -t 0.515 -s 0 -d 2 -p cbr -e 500 -c 2 -i 3 -a 2 -x {0.0 4.0 -1 ------- null}
r -t 0.519 -s 0 -d 2 -p cbr -e 500 -c 2 -i 1 -a 2 -x {0.0 4.0 1 ------- null}
+ -t 0.519 -s 2 -d 3 -p cbr -e 500 -c 2 -i 1 -a 2 -x {0.0 4.0 1 ------- null}
- -t 0.519 -s 2 -d 3 -p cbr -e 500 -c 2 -i 1 -a 2 -x {0.0 4.0 1 ------- null}
h -t 0.519 -s 2 -d 3 -p cbr -e 500 -c 2 -i 1 -a 2 -x {0.0 4.0 -1 ------- null}
+ -t 0.52 -s 0 -d 2 -p cbr -e 500 -c 2 -i 4 -a 2 -x {0.0 4.0 4 ------- null}
- -t 0.52 -s 0 -d 2 -p cbr -e 500 -c 2 -i 4 -a 2 -x {0.0 4.0 4 ------- null}
h -t 0.52 -s 0 -d 2 -p cbr -e 500 -c 2 -i 4 -a 2 -x {0.0 4.0 -1 ------- null}
r -t 0.524 -s 0 -d 2 -p cbr -e 500 -c 2 -i 2 -a 2 -x {0.0 4.0 2 ------- null}
+ -t 0.524 -s 2 -d 3 -p cbr -e 500 -c 2 -i 2 -a 2 -x {0.0 4.0 2 ------- null}
- -t 0.524 -s 2 -d 3 -p cbr -e 500 -c 2 -i 2 -a 2 -x {0.0 4.0 2 ------- null}
h -t 0.524 -s 2 -d 3 -p cbr -e 500 -c 2 -i 2 -a 2 -x {0.0 4.0 -1 ------- null}
+ -t 0.525 -s 0 -d 2 -p cbr -e 500 -c 2 -i 5 -a 2 -x {0.0 4.0 5 ------- null}
- -t 0.525 -s 0 -d 2 -p cbr -e 500 -c 2 -i 5 -a 2 -x {0.0 4.0 5 ------- null}
h -t 0.525 -s 0 -d 2 -p cbr -e 500 -c 2 -i 5 -a 2 -x {0.0 4.0 -1 ------- null}
r -t 0.526 -s 2 -d 3 -p cbr -e 500 -c 2 -i 0 -a 2 -x {0.0 4.0 0 ------- null}
+ -t 0.526 -s 3 -d 4 -p cbr -e 500 -c 2 -i 0 -a 2 -x {0.0 4.0 0 ------- null}
- -t 0.526 -s 3 -d 4 -p cbr -e 500 -c 2 -i 0 -a 2 -x {0.0 4.0 0 ------- null}
h -t 0.526 -s 3 -d 4 -p cbr -e 500 -c 2 -i 0 -a 2 -x {0.0 4.0 -1 ------- null}
r -t 0.529 -s 0 -d 2 -p cbr -e 500 -c 2 -i 3 -a 2 -x {0.0 4.0 3 ------- null}
+ -t 0.529 -s 2 -d 3 -p cbr -e 500 -c 2 -i 3 -a 2 -x {0.0 4.0 3 ------- null}
- -t 0.529 -s 2 -d 3 -p cbr -e 500 -c 2 -i 3 -a 2 -x {0.0 4.0 3 ------- null}
h -t 0.529 -s 2 -d 3 -p cbr -e 500 -c 2 -i 3 -a 2 -x {0.0 4.0 -1 ------- null}
+ -t 0.53 -s 0 -d 2 -p cbr -e 500 -c 2 -i 6 -a 2 -x {0.0 4.0 6 ------- null}
- -t 0.53 -s 0 -d 2 -p cbr -e 500 -c 2 -i 6 -a 2 -x {0.0 4.0 6 ------- null}
h -t 0.53 -s 0 -d 2 -p cbr -e 500 -c 2 -i 6 -a 2 -x {0.0 4.0 -1 ------- null}
r -t 0.531 -s 2 -d 3 -p cbr -e 500 -c 2 -i 1 -a 2 -x {0.0 4.0 1 ------- null}
+ -t 0.531 -s 3 -d 4 -p cbr -e 500 -c 2 -i 1 -a 2 -x {0.0 4.0 1 ------- null}
- -t 0.531 -s 3 -d 4 -p cbr -e 500 -c 2 -i 1 -a 2 -x {0.0 4.0 1 ------- null}
h -t 0.531 -s 3 -d 4 -p cbr -e 500 -c 2 -i 1 -a 2 -x {0.0 4.0 -1 ------- null}
r -t 0.534 -s 0 -d 2 -p cbr -e 500 -c 2 -i 4 -a 2 -x {0.0 4.0 4 ------- null}
+ -t 0.534 -s 2 -d 3 -p cbr -e 500 -c 2 -i 4 -a 2 -x {0.0 4.0 4 ------- null}
- -t 0.534 -s 2 -d 3 -p cbr -e 500 -c 2 -i 4 -a 2 -x {0.0 4.0 4 ------- null}
h -t 0.534 -s 2 -d 3 -p cbr -e 500 -c 2 -i 4 -a 2 -x {0.0 4.0 -1 ------- null}
+ -t 0.535 -s 0 -d 2 -p cbr -e 500 -c 2 -i 7 -a 2 -x {0.0 4.0 7 ------- null}
- -t 0.535 -s 0 -d 2 -p cbr -e 500 -c 2 -i 7 -a 2 -x {0.0 4.0 7 ------- null}
h -t 0.535 -s 0 -d 2 -p cbr -e 500 -c 2 -i 7 -a 2 -x {0.0 4.0 -1 ------- null}
r -t 0.536 -s 2 -d 3 -p cbr -e 500 -c 2 -i 2 -a 2 -x {0.0 4.0 2 ------- null}
+ -t 0.536 -s 3 -d 4 -p cbr -e 500 -c 2 -i 2 -a 2 -x {0.0 4.0 2 ------- null}
- -t 0.536 -s 3 -d 4 -p cbr -e 500 -c 2 -i 2 -a 2 -x {0.0 4.0 2 ------- null}
h -t 0.536 -s 3 -d 4 -p cbr -e 500 -c 2 -i 2 -a 2 -x {0.0 4.0 -1 ------- null}
r -t 0.539 -s 0 -d 2 -p cbr -e 500 -c 2 -i 5 -a 2 -x {0.0 4.0 5 ------- null}
+ -t 0.539 -s 2 -d 3 -p cbr -e 500 -c 2 -i 5 -a 2 -x {0.0 4.0 5 ------- null}
- -t 0.539 -s 2 -d 3 -p cbr -e 500 -c 2 -i 5 -a 2 -x {0.0 4.0 5 ------- null}
h -t 0.539 -s 2 -d 3 -p cbr -e 500 -c 2 -i 5 -a 2 -x {0.0 4.0 -1 ------- null}
r -t 0.54 -s 3 -d 4 -p cbr -e 500 -c 2 -i 0 -a 2 -x {0.0 4.0 0 ------- null}
+ -t 0.54 -s 0 -d 2 -p cbr -e 500 -c 2 -i 8 -a 2 -x {0.0 4.0 8 ------- null}
- -t 0.54 -s 0 -d 2 -p cbr -e 500 -c 2 -i 8 -a 2 -x {0.0 4.0 8 ------- null}
h -t 0.54 -s 0 -d 2 -p cbr -e 500 -c 2 -i 8 -a 2 -x {0.0 4.0 -1 ------- null}
r -t 0.541 -s 2 -d 3 -p cbr -e 500 -c 2 -i 3 -a 2 -x {0.0 4.0 3 ------- null}
+ -t 0.541 -s 3 -d 4 -p cbr -e 500 -c 2 -i 3 -a 2 -x {0.0 4.0 3 ------- null}
- -t 0.541 -s 3 -d 4 -p cbr -e 500 -c 2 -i 3 -a 2 -x {0.0 4.0 3 ------- null}
h -t 0.541 -s 3 -d 4 -p cbr -e 500 -c 2 -i 3 -a 2 -x {0.0 4.0 -1 ------- null}
r -t 0.544 -s 0 -d 2 -p cbr -e 500 -c 2 -i 6 -a 2 -x {0.0 4.0 6 ------- null}
+ -t 0.544 -s 2 -d 3 -p cbr -e 500 -c 2 -i 6 -a 2 -x {0.0 4.0 6 ------- null}
- -t 0.544 -s 2 -d 3 -p cbr -e 500 -c 2 -i 6 -a 2 -x {0.0 4.0 6 ------- null}
h -t 0.544 -s 2 -d 3 -p cbr -e 500 -c 2 -i 6 -a 2 -x {0.0 4.0 -1 ------- null}
r -t 0.545 -s 3 -d 4 -p cbr -e 500 -c 2 -i 1 -a 2 -x {0.0 4.0 1 ------- null}
+ -t 0.545 -s 0 -d 2 -p cbr -e 500 -c 2 -i 9 -a 2 -x {0.0 4.0 9 ------- null}
- -t 0.545 -s 0 -d 2 -p cbr -e 500 -c 2 -i 9 -a 2 -x {0.0 4.0 9 ------- null}
h -t 0.545 -s 0 -d 2 -p cbr -e 500 -c 2 -i 9 -a 2 -x {0.0 4.0 -1 ------- null}
r -t 0.546 -s 2 -d 3 -p cbr -e 500 -c 2 -i 4 -a 2 -x {0.0 4.0 4 ------- null}
+ -t 0.546 -s 3 -d 4 -p cbr -e 500 -c 2 -i 4 -a 2 -x {0.0 4.0 4 ------- null}
- -t 0.546 -s 3 -d 4 -p cbr -e 500 -c 2 -i 4 -a 2 -x {0.0 4.0 4 ------- null}
h -t 0.546 -s 3 -d 4 -p cbr -e 500 -c 2 -i 4 -a 2 -x {0.0 4.0 -1 ------- null}
r -t 0.549 -s 0 -d 2 -p cbr -e 500 -c 2 -i 7 -a 2 -x {0.0 4.0 7 ------- null}
+ -t 0.549 -s 2 -d 3 -p cbr -e 500 -c 2 -i 7 -a 2 -x {0.0 4.0 7 ------- null}
- -t 0.549 -s 2 -d 3 -p cbr -e 500 -c 2 -i 7 -a 2 -x {0.0 4.0 7 ------- null}
h -t 0.549 -s 2 -d 3 -p cbr -e 500 -c 2 -i 7 -a 2 -x {0.0 4.0 -1 ------- null}
r -t 0.55 -s 3 -d 4 -p cbr -e 500 -c 2 -i 2 -a 2 -x {0.0 4.0 2 ------- null}
+ -t 0.55 -s 0 -d 2 -p cbr -e 500 -c 2 -i 10 -a 2 -x {0.0 4.0 10 ------- null}
- -t 0.55 -s 0 -d 2 -p cbr -e 500 -c 2 -i 10 -a 2 -x {0.0 4.0 10 ------- null}
h -t 0.55 -s 0 -d 2 -p cbr -e 500 -c 2 -i 10 -a 2 -x {0.0 4.0 -1 ------- null}
r -t 0.551 -s 2 -d 3 -p cbr -e 500 -c 2 -i 5 -a 2 -x {0.0 4.0 5 ------- null}
+ -t 0.551 -s 3 -d 4 -p cbr -e 500 -c 2 -i 5 -a 2 -x {0.0 4.0 5 ------- null}
- -t 0.551 -s 3 -d 4 -p cbr -e 500 -c 2 -i 5 -a 2 -x {0.0 4.0 5 ------- null}
h -t 0.551 -s 3 -d 4 -p cbr -e 500 -c 2 -i 5 -a 2 -x {0.0 4.0 -1 ------- null}
r -t 0.554 -s 0 -d 2 -p cbr -e 500 -c 2 -i 8 -a 2 -x {0.0 4.0 8 ------- null}
+ -t 0.554 -s 2 -d 3 -p cbr -e 500 -c 2 -i 8 -a 2 -x {0.0 4.0 8 ------- null}
- -t 0.554 -s 2 -d 3 -p cbr -e 500 -c 2 -i 8 -a 2 -x {0.0 4.0 8 ------- null}
h -t 0.554 -s 2 -d 3 -p cbr -e 500 -c 2 -i 8 -a 2 -x {0.0 4.0 -1 ------- null}
r -t 0.555 -s 3 -d 4 -p cbr -e 500 -c 2 -i 3 -a 2 -x {0.0 4.0 3 ------- null}
+ -t 0.555 -s 0 -d 2 -p cbr -e 500 -c 2 -i 11 -a 2 -x {0.0 4.0 11 ------- null}
- -t 0.555 -s 0 -d 2 -p cbr -e 500 -c 2 -i 11 -a 2 -x {0.0 4.0 11 ------- null}
h -t 0.555 -s 0 -d 2 -p cbr -e 500 -c 2 -i 11 -a 2 -x {0.0 4.0 -1 ------- null}
r -t 0.556 -s 2 -d 3 -p cbr -e 500 -c 2 -i 6 -a 2 -x {0.0 4.0 6 ------- null}
+ -t 0.556 -s 3 -d 4 -p cbr -e 500 -c 2 -i 6 -a 2 -x {0.0 4.0 6 ------- null}
- -t 0.556 -s 3 -d 4 -p cbr -e 500 -c 2 -i 6 -a 2 -x {0.0 4.0 6 ------- null}
h -t 0.556 -s 3 -d 4 -p cbr -e 500 -c 2 -i 6 -a 2 -x {0.0 4.0 -1 ------- null}
r -t 0.559 -s 0 -d 2 -p cbr -e 500 -c 2 -i 9 -a 2 -x {0.0 4.0 9 ------- null}
+ -t 0.559 -s 2 -d 3 -p cbr -e 500 -c 2 -i 9 -a 2 -x {0.0 4.0 9 ------- null}
- -t 0.559 -s 2 -d 3 -p cbr -e 500 -c 2 -i 9 -a 2 -x {0.0 4.0 9 ------- null}
h -t 0.559 -s 2 -d 3 -p cbr -e 500 -c 2 -i 9 -a 2 -x {0.0 4.0 -1 ------- null}
r -t 0.56 -s 3 -d 4 -p cbr -e 500 -c 2 -i 4 -a 2 -x {0.0 4.0 4 ------- null}
+ -t 0.56 -s 0 -d 2 -p cbr -e 500 -c 2 -i 12 -a 2 -x {0.0 4.0 12 ------- null}
- -t 0.56 -s 0 -d 2 -p cbr -e 500 -c 2 -i 12 -a 2 -x {0.0 4.0 12 ------- null}
h -t 0.56 -s 0 -d 2 -p cbr -e 500 -c 2 -i 12 -a 2 -x {0.0 4.0 -1 ------- null}
r -t 0.561 -s 2 -d 3 -p cbr -e 500 -c 2 -i 7 -a 2 -x {0.0 4.0 7 ------- null}
+ -t 0.561 -s 3 -d 4 -p cbr -e 500 -c 2 -i 7 -a 2 -x {0.0 4.0 7 ------- null}
- -t 0.561 -s 3 -d 4 -p cbr -e 500 -c 2 -i 7 -a 2 -x {0.0 4.0 7 ------- null}
h -t 0.561 -s 3 -d 4 -p cbr -e 500 -c 2 -i 7 -a 2 -x {0.0 4.0 -1 ------- null}
r -t 0.564 -s 0 -d 2 -p cbr -e 500 -c 2 -i 10 -a 2 -x {0.0 4.0 10 ------- null}
+ -t 0.564 -s 2 -d 3 -p cbr -e 500 -c 2 -i 10 -a 2 -x {0.0 4.0 10 ------- null}
- -t 0.564 -s 2 -d 3 -p cbr -e 500 -c 2 -i 10 -a 2 -x {0.0 4.0 10 ------- null}
h -t 0.564 -s 2 -d 3 -p cbr -e 500 -c 2 -i 10 -a 2 -x {0.0 4.0 -1 ------- null}
r -t 0.565 -s 3 -d 4 -p cbr -e 500 -c 2 -i 5 -a 2 -x {0.0 4.0 5 ------- null}
+ -t 0.565 -s 0 -d 2 -p cbr -e 500 -c 2 -i 13 -a 2 -x {0.0 4.0 13 ------- null}
- -t 0.565 -s 0 -d 2 -p cbr -e 500 -c 2 -i 13 -a 2 -x {0.0 4.0 13 ------- null}
h -t 0.565 -s 0 -d 2 -p cbr -e 500 -c 2 -i 13 -a 2 -x {0.0 4.0 -1 ------- null}
r -t 0.566 -s 2 -d 3 -p cbr -e 500 -c 2 -i 8 -a 2 -x {0.0 4.0 8 ------- null}
+ -t 0.566 -s 3 -d 4 -p cbr -e 500 -c 2 -i 8 -a 2 -x {0.0 4.0 8 ------- null}
- -t 0.566 -s 3 -d 4 -p cbr -e 500 -c 2 -i 8 -a 2 -x {0.0 4.0 8 ------- null}
h -t 0.566 -s 3 -d 4 -p cbr -e 500 -c 2 -i 8 -a 2 -x {0.0 4.0 -1 ------- null}
r -t 0.569 -s 0 -d 2 -p cbr -e 500 -c 2 -i 11 -a 2 -x {0.0 4.0 11 ------- null}
+ -t 0.569 -s 2 -d 3 -p cbr -e 500 -c 2 -i 11 -a 2 -x {0.0 4.0 11 ------- null}
- -t 0.569 -s 2 -d 3 -p cbr -e 500 -c 2 -i 11 -a 2 -x {0.0 4.0 11 ------- null}
h -t 0.569 -s 2 -d 3 -p cbr -e 500 -c 2 -i 11 -a 2 -x {0.0 4.0 -1 ------- null}
r -t 0.57 -s 3 -d 4 -p cbr -e 500 -c 2 -i 6 -a 2 -x {0.0 4.0 6 ------- null}
+ -t 0.57 -s 0 -d 2 -p cbr -e 500 -c 2 -i 14 -a 2 -x {0.0 4.0 14 ------- null}
- -t 0.57 -s 0 -d 2 -p cbr -e 500 -c 2 -i 14 -a 2 -x {0.0 4.0 14 ------- null}
h -t 0.57 -s 0 -d 2 -p cbr -e 500 -c 2 -i 14 -a 2 -x {0.0 4.0 -1 ------- null}
r -t 0.571 -s 2 -d 3 -p cbr -e 500 -c 2 -i 9 -a 2 -x {0.0 4.0 9 ------- null}
+ -t 0.571 -s 3 -d 4 -p cbr -e 500 -c 2 -i 9 -a 2 -x {0.0 4.0 9 ------- null}
- -t 0.571 -s 3 -d 4 -p cbr -e 500 -c 2 -i 9 -a 2 -x {0.0 4.0 9 ------- null}
h -t 0.571 -s 3 -d 4 -p cbr -e 500 -c 2 -i 9 -a 2 -x {0.0 4.0 -1 ------- null}
r -t 0.574 -s 0 -d 2 -p cbr -e 500 -c 2 -i 12 -a 2 -x {0.0 4.0 12 ------- null}
+ -t 0.574 -s 2 -d 3 -p cbr -e 500 -c 2 -i 12 -a 2 -x {0.0 4.0 12 ------- null}
- -t 0.574 -s 2 -d 3 -p cbr -e 500 -c 2 -i 12 -a 2 -x {0.0 4.0 12 ------- null}
h -t 0.574 -s 2 -d 3 -p cbr -e 500 -c 2 -i 12 -a 2 -x {0.0 4.0 -1 ------- null}
r -t 0.575 -s 3 -d 4 -p cbr -e 500 -c 2 -i 7 -a 2 -x {0.0 4.0 7 ------- null}
+ -t 0.575 -s 0 -d 2 -p cbr -e 500 -c 2 -i 15 -a 2 -x {0.0 4.0 15 ------- null}
- -t 0.575 -s 0 -d 2 -p cbr -e 500 -c 2 -i 15 -a 2 -x {0.0 4.0 15 ------- null}
h -t 0.575 -s 0 -d 2 -p cbr -e 500 -c 2 -i 15 -a 2 -x {0.0 4.0 -1 ------- null}
r -t 0.576 -s 2 -d 3 -p cbr -e 500 -c 2 -i 10 -a 2 -x {0.0 4.0 10 ------- null}
+ -t 0.576 -s 3 -d 4 -p cbr -e 500 -c 2 -i 10 -a 2 -x {0.0 4.0 10 ------- null}
- -t 0.576 -s 3 -d 4 -p cbr -e 500 -c 2 -i 10 -a 2 -x {0.0 4.0 10 ------- null}
h -t 0.576 -s 3 -d 4 -p cbr -e 500 -c 2 -i 10 -a 2 -x {0.0 4.0 -1 ------- null}
r -t 0.579 -s 0 -d 2 -p cbr -e 500 -c 2 -i 13 -a 2 -x {0.0 4.0 13 ------- null}
+ -t 0.579 -s 2 -d 3 -p cbr -e 500 -c 2 -i 13 -a 2 -x {0.0 4.0 13 ------- null}
- -t 0.579 -s 2 -d 3 -p cbr -e 500 -c 2 -i 13 -a 2 -x {0.0 4.0 13 ------- null}
h -t 0.579 -s 2 -d 3 -p cbr -e 500 -c 2 -i 13 -a 2 -x {0.0 4.0 -1 ------- null}
r -t 0.58 -s 3 -d 4 -p cbr -e 500 -c 2 -i 8 -a 2 -x {0.0 4.0 8 ------- null}
+ -t 0.58 -s 0 -d 2 -p cbr -e 500 -c 2 -i 16 -a 2 -x {0.0 4.0 16 ------- null}
- -t 0.58 -s 0 -d 2 -p cbr -e 500 -c 2 -i 16 -a 2 -x {0.0 4.0 16 ------- null}
h -t 0.58 -s 0 -d 2 -p cbr -e 500 -c 2 -i 16 -a 2 -x {0.0 4.0 -1 ------- null}
r -t 0.581 -s 2 -d 3 -p cbr -e 500 -c 2 -i 11 -a 2 -x {0.0 4.0 11 ------- null}
+ -t 0.581 -s 3 -d 4 -p cbr -e 500 -c 2 -i 11 -a 2 -x {0.0 4.0 11 ------- null}
- -t 0.581 -s 3 -d 4 -p cbr -e 500 -c 2 -i 11 -a 2 -x {0.0 4.0 11 ------- null}
h -t 0.581 -s 3 -d 4 -p cbr -e 500 -c 2 -i 11 -a 2 -x {0.0 4.0 -1 ------- null}
r -t 0.584 -s 0 -d 2 -p cbr -e 500 -c 2 -i 14 -a 2 -x {0.0 4.0 14 ------- null}
+ -t 0.584 -s 2 -d 3 -p cbr -e 500 -c 2 -i 14 -a 2 -x {0.0 4.0 14 ------- null}
- -t 0.584 -s 2 -d 3 -p cbr -e 500 -c 2 -i 14 -a 2 -x {0.0 4.0 14 ------- null}
h -t 0.584 -s 2 -d 3 -p cbr -e 500 -c 2 -i 14 -a 2 -x {0.0 4.0 -1 ------- null}
r -t 0.585 -s 3 -d 4 -p cbr -e 500 -c 2 -i 9 -a 2 -x {0.0 4.0 9 ------- null}
+ -t 0.585 -s 0 -d 2 -p cbr -e 500 -c 2 -i 17 -a 2 -x {0.0 4.0 17 ------- null}
- -t 0.585 -s 0 -d 2 -p cbr -e 500 -c 2 -i 17 -a 2 -x {0.0 4.0 17 ------- null}
h -t 0.585 -s 0 -d 2 -p cbr -e 500 -c 2 -i 17 -a 2 -x {0.0 4.0 -1 ------- null}
r -t 0.586 -s 2 -d 3 -p cbr -e 500 -c 2 -i 12 -a 2 -x {0.0 4.0 12 ------- null}
+ -t 0.586 -s 3 -d 4 -p cbr -e 500 -c 2 -i 12 -a 2 -x {0.0 4.0 12 ------- null}
- -t 0.586 -s 3 -d 4 -p cbr -e 500 -c 2 -i 12 -a 2 -x {0.0 4.0 12 ------- null}
h -t 0.586 -s 3 -d 4 -p cbr -e 500 -c 2 -i 12 -a 2 -x {0.0 4.0 -1 ------- null}
r -t 0.589 -s 0 -d 2 -p cbr -e 500 -c 2 -i 15 -a 2 -x {0.0 4.0 15 ------- null}
+ -t 0.589 -s 2 -d 3 -p cbr -e 500 -c 2 -i 15 -a 2 -x {0.0 4.0 15 ------- null}
- -t 0.589 -s 2 -d 3 -p cbr -e 500 -c 2 -i 15 -a 2 -x {0.0 4.0 15 ------- null}
h -t 0.589 -s 2 -d 3 -p cbr -e 500 -c 2 -i 15 -a 2 -x {0.0 4.0 -1 ------- null}
r -t 0.59 -s 3 -d 4 -p cbr -e 500 -c 2 -i 10 -a 2 -x {0.0 4.0 10 ------- null}
+ -t 0.59 -s 0 -d 2 -p cbr -e 500 -c 2 -i 18 -a 2 -x {0.0 4.0 18 ------- null}
- -t 0.59 -s 0 -d 2 -p cbr -e 500 -c 2 -i 18 -a 2 -x {0.0 4.0 18 ------- null}
h -t 0.59 -s 0 -d 2 -p cbr -e 500 -c 2 -i 18 -a 2 -x {0.0 4.0 -1 ------- null}
r -t 0.591 -s 2 -d 3 -p cbr -e 500 -c 2 -i 13 -a 2 -x {0.0 4.0 13 ------- null}
+ -t 0.591 -s 3 -d 4 -p cbr -e 500 -c 2 -i 13 -a 2 -x {0.0 4.0 13 ------- null}
- -t 0.591 -s 3 -d 4 -p cbr -e 500 -c 2 -i 13 -a 2 -x {0.0 4.0 13 ------- null}
h -t 0.591 -s 3 -d 4 -p cbr -e 500 -c 2 -i 13 -a 2 -x {0.0 4.0 -1 ------- null}
r -t 0.594 -s 0 -d 2 -p cbr -e 500 -c 2 -i 16 -a 2 -x {0.0 4.0 16 ------- null}
+ -t 0.594 -s 2 -d 3 -p cbr -e 500 -c 2 -i 16 -a 2 -x {0.0 4.0 16 ------- null}
- -t 0.594 -s 2 -d 3 -p cbr -e 500 -c 2 -i 16 -a 2 -x {0.0 4.0 16 ------- null}
h -t 0.594 -s 2 -d 3 -p cbr -e 500 -c 2 -i 16 -a 2 -x {0.0 4.0 -1 ------- null}
r -t 0.595 -s 3 -d 4 -p cbr -e 500 -c 2 -i 11 -a 2 -x {0.0 4.0 11 ------- null}
+ -t 0.595 -s 0 -d 2 -p cbr -e 500 -c 2 -i 19 -a 2 -x {0.0 4.0 19 ------- null}
- -t 0.595 -s 0 -d 2 -p cbr -e 500 -c 2 -i 19 -a 2 -x {0.0 4.0 19 ------- null}
h -t 0.595 -s 0 -d 2 -p cbr -e 500 -c 2 -i 19 -a 2 -x {0.0 4.0 -1 ------- null}
r -t 0.596 -s 2 -d 3 -p cbr -e 500 -c 2 -i 14 -a 2 -x {0.0 4.0 14 ------- null}
+ -t 0.596 -s 3 -d 4 -p cbr -e 500 -c 2 -i 14 -a 2 -x {0.0 4.0 14 ------- null}
- -t 0.596 -s 3 -d 4 -p cbr -e 500 -c 2 -i 14 -a 2 -x {0.0 4.0 14 ------- null}
h -t 0.596 -s 3 -d 4 -p cbr -e 500 -c 2 -i 14 -a 2 -x {0.0 4.0 -1 ------- null}
r -t 0.599 -s 0 -d 2 -p cbr -e 500 -c 2 -i 17 -a 2 -x {0.0 4.0 17 ------- null}
+ -t 0.599 -s 2 -d 3 -p cbr -e 500 -c 2 -i 17 -a 2 -x {0.0 4.0 17 ------- null}
- -t 0.599 -s 2 -d 3 -p cbr -e 500 -c 2 -i 17 -a 2 -x {0.0 4.0 17 ------- null}
h -t 0.599 -s 2 -d 3 -p cbr -e 500 -c 2 -i 17 -a 2 -x {0.0 4.0 -1 ------- null}
r -t 0.6 -s 3 -d 4 -p cbr -e 500 -c 2 -i 12 -a 2 -x {0.0 4.0 12 ------- null}
+ -t 0.6 -s 0 -d 2 -p cbr -e 500 -c 2 -i 20 -a 2 -x {0.0 4.0 20 ------- null}
- -t 0.6 -s 0 -d 2 -p cbr -e 500 -c 2 -i 20 -a 2 -x {0.0 4.0 20 ------- null}
h -t 0.6 -s 0 -d 2 -p cbr -e 500 -c 2 -i 20 -a 2 -x {0.0 4.0 -1 ------- null}
r -t 0.601 -s 2 -d 3 -p cbr -e 500 -c 2 -i 15 -a 2 -x {0.0 4.0 15 ------- null}
+ -t 0.601 -s 3 -d 4 -p cbr -e 500 -c 2 -i 15 -a 2 -x {0.0 4.0 15 ------- null}
- -t 0.601 -s 3 -d 4 -p cbr -e 500 -c 2 -i 15 -a 2 -x {0.0 4.0 15 ------- null}
h -t 0.601 -s 3 -d 4 -p cbr -e 500 -c 2 -i 15 -a 2 -x {0.0 4.0 -1 ------- null}
r -t 0.604 -s 0 -d 2 -p cbr -e 500 -c 2 -i 18 -a 2 -x {0.0 4.0 18 ------- null}
+ -t 0.604 -s 2 -d 3 -p cbr -e 500 -c 2 -i 18 -a 2 -x {0.0 4.0 18 ------- null}
- -t 0.604 -s 2 -d 3 -p cbr -e 500 -c 2 -i 18 -a 2 -x {0.0 4.0 18 ------- null}
h -t 0.604 -s 2 -d 3 -p cbr -e 500 -c 2 -i 18 -a 2 -x {0.0 4.0 -1 ------- null}
r -t 0.605 -s 3 -d 4 -p cbr -e 500 -c 2 -i 13 -a 2 -x {0.0 4.0 13 ------- null}
+ -t 0.605 -s 0 -d 2 -p cbr -e 500 -c 2 -i 21 -a 2 -x {0.0 4.0 21 ------- null}
- -t 0.605 -s 0 -d 2 -p cbr -e 500 -c 2 -i 21 -a 2 -x {0.0 4.0 21 ------- null}
h -t 0.605 -s 0 -d 2 -p cbr -e 500 -c 2 -i 21 -a 2 -x {0.0 4.0 -1 ------- null}
r -t 0.606 -s 2 -d 3 -p cbr -e 500 -c 2 -i 16 -a 2 -x {0.0 4.0 16 ------- null}
+ -t 0.606 -s 3 -d 4 -p cbr -e 500 -c 2 -i 16 -a 2 -x {0.0 4.0 16 ------- null}
- -t 0.606 -s 3 -d 4 -p cbr -e 500 -c 2 -i 16 -a 2 -x {0.0 4.0 16 ------- null}
h -t 0.606 -s 3 -d 4 -p cbr -e 500 -c 2 -i 16 -a 2 -x {0.0 4.0 -1 ------- null}
r -t 0.609 -s 0 -d 2 -p cbr -e 500 -c 2 -i 19 -a 2 -x {0.0 4.0 19 ------- null}
+ -t 0.609 -s 2 -d 3 -p cbr -e 500 -c 2 -i 19 -a 2 -x {0.0 4.0 19 ------- null}
- -t 0.609 -s 2 -d 3 -p cbr -e 500 -c 2 -i 19 -a 2 -x {0.0 4.0 19 ------- null}
h -t 0.609 -s 2 -d 3 -p cbr -e 500 -c 2 -i 19 -a 2 -x {0.0 4.0 -1 ------- null}
r -t 0.61 -s 3 -d 4 -p cbr -e 500 -c 2 -i 14 -a 2 -x {0.0 4.0 14 ------- null}
+ -t 0.61 -s 0 -d 2 -p cbr -e 500 -c 2 -i 22 -a 2 -x {0.0 4.0 22 ------- null}
- -t 0.61 -s 0 -d 2 -p cbr -e 500 -c 2 -i 22 -a 2 -x {0.0 4.0 22 ------- null}
h -t 0.61 -s 0 -d 2 -p cbr -e 500 -c 2 -i 22 -a 2 -x {0.0 4.0 -1 ------- null}
r -t 0.611 -s 2 -d 3 -p cbr -e 500 -c 2 -i 17 -a 2 -x {0.0 4.0 17 ------- null}
+ -t 0.611 -s 3 -d 4 -p cbr -e 500 -c 2 -i 17 -a 2 -x {0.0 4.0 17 ------- null}
- -t 0.611 -s 3 -d 4 -p cbr -e 500 -c 2 -i 17 -a 2 -x {0.0 4.0 17 ------- null}
h -t 0.611 -s 3 -d 4 -p cbr -e 500 -c 2 -i 17 -a 2 -x {0.0 4.0 -1 ------- null}
r -t 0.614 -s 0 -d 2 -p cbr -e 500 -c 2 -i 20 -a 2 -x {0.0 4.0 20 ------- null}
+ -t 0.614 -s 2 -d 3 -p cbr -e 500 -c 2 -i 20 -a 2 -x {0.0 4.0 20 ------- null}
- -t 0.614 -s 2 -d 3 -p cbr -e 500 -c 2 -i 20 -a 2 -x {0.0 4.0 20 ------- null}
h -t 0.614 -s 2 -d 3 -p cbr -e 500 -c 2 -i 20 -a 2 -x {0.0 4.0 -1 ------- null}
r -t 0.615 -s 3 -d 4 -p cbr -e 500 -c 2 -i 15 -a 2 -x {0.0 4.0 15 ------- null}
+ -t 0.615 -s 0 -d 2 -p cbr -e 500 -c 2 -i 23 -a 2 -x {0.0 4.0 23 ------- null}
- -t 0.615 -s 0 -d 2 -p cbr -e 500 -c 2 -i 23 -a 2 -x {0.0 4.0 23 ------- null}
h -t 0.615 -s 0 -d 2 -p cbr -e 500 -c 2 -i 23 -a 2 -x {0.0 4.0 -1 ------- null}
r -t 0.616 -s 2 -d 3 -p cbr -e 500 -c 2 -i 18 -a 2 -x {0.0 4.0 18 ------- null}
+ -t 0.616 -s 3 -d 4 -p cbr -e 500 -c 2 -i 18 -a 2 -x {0.0 4.0 18 ------- null}
- -t 0.616 -s 3 -d 4 -p cbr -e 500 -c 2 -i 18 -a 2 -x {0.0 4.0 18 ------- null}
h -t 0.616 -s 3 -d 4 -p cbr -e 500 -c 2 -i 18 -a 2 -x {0.0 4.0 -1 ------- null}
r -t 0.619 -s 0 -d 2 -p cbr -e 500 -c 2 -i 21 -a 2 -x {0.0 4.0 21 ------- null}
+ -t 0.619 -s 2 -d 3 -p cbr -e 500 -c 2 -i 21 -a 2 -x {0.0 4.0 21 ------- null}
- -t 0.619 -s 2 -d 3 -p cbr -e 500 -c 2 -i 21 -a 2 -x {0.0 4.0 21 ------- null}
h -t 0.619 -s 2 -d 3 -p cbr -e 500 -c 2 -i 21 -a 2 -x {0.0 4.0 -1 ------- null}
r -t 0.62 -s 3 -d 4 -p cbr -e 500 -c 2 -i 16 -a 2 -x {0.0 4.0 16 ------- null}
+ -t 0.62 -s 0 -d 2 -p cbr -e 500 -c 2 -i 24 -a 2 -x {0.0 4.0 24 ------- null}
- -t 0.62 -s 0 -d 2 -p cbr -e 500 -c 2 -i 24 -a 2 -x {0.0 4.0 24 ------- null}
h -t 0.62 -s 0 -d 2 -p cbr -e 500 -c 2 -i 24 -a 2 -x {0.0 4.0 -1 ------- null}
r -t 0.621 -s 2 -d 3 -p cbr -e 500 -c 2 -i 19 -a 2 -x {0.0 4.0 19 ------- null}
+ -t 0.621 -s 3 -d 4 -p cbr -e 500 -c 2 -i 19 -a 2 -x {0.0 4.0 19 ------- null}
- -t 0.621 -s 3 -d 4 -p cbr -e 500 -c 2 -i 19 -a 2 -x {0.0 4.0 19 ------- null}
h -t 0.621 -s 3 -d 4 -p cbr -e 500 -c 2 -i 19 -a 2 -x {0.0 4.0 -1 ------- null}
r -t 0.624 -s 0 -d 2 -p cbr -e 500 -c 2 -i 22 -a 2 -x {0.0 4.0 22 ------- null}
+ -t 0.624 -s 2 -d 3 -p cbr -e 500 -c 2 -i 22 -a 2 -x {0.0 4.0 22 ------- null}
- -t 0.624 -s 2 -d 3 -p cbr -e 500 -c 2 -i 22 -a 2 -x {0.0 4.0 22 ------- null}
h -t 0.624 -s 2 -d 3 -p cbr -e 500 -c 2 -i 22 -a 2 -x {0.0 4.0 -1 ------- null}
r -t 0.625 -s 3 -d 4 -p cbr -e 500 -c 2 -i 17 -a 2 -x {0.0 4.0 17 ------- null}
+ -t 0.625 -s 0 -d 2 -p cbr -e 500 -c 2 -i 25 -a 2 -x {0.0 4.0 25 ------- null}
- -t 0.625 -s 0 -d 2 -p cbr -e 500 -c 2 -i 25 -a 2 -x {0.0 4.0 25 ------- null}
h -t 0.625 -s 0 -d 2 -p cbr -e 500 -c 2 -i 25 -a 2 -x {0.0 4.0 -1 ------- null}
r -t 0.626 -s 2 -d 3 -p cbr -e 500 -c 2 -i 20 -a 2 -x {0.0 4.0 20 ------- null}
+ -t 0.626 -s 3 -d 4 -p cbr -e 500 -c 2 -i 20 -a 2 -x {0.0 4.0 20 ------- null}
- -t 0.626 -s 3 -d 4 -p cbr -e 500 -c 2 -i 20 -a 2 -x {0.0 4.0 20 ------- null}
h -t 0.626 -s 3 -d 4 -p cbr -e 500 -c 2 -i 20 -a 2 -x {0.0 4.0 -1 ------- null}
r -t 0.629 -s 0 -d 2 -p cbr -e 500 -c 2 -i 23 -a 2 -x {0.0 4.0 23 ------- null}
+ -t 0.629 -s 2 -d 3 -p cbr -e 500 -c 2 -i 23 -a 2 -x {0.0 4.0 23 ------- null}
- -t 0.629 -s 2 -d 3 -p cbr -e 500 -c 2 -i 23 -a 2 -x {0.0 4.0 23 ------- null}
h -t 0.629 -s 2 -d 3 -p cbr -e 500 -c 2 -i 23 -a 2 -x {0.0 4.0 -1 ------- null}
r -t 0.63 -s 3 -d 4 -p cbr -e 500 -c 2 -i 18 -a 2 -x {0.0 4.0 18 ------- null}
+ -t 0.63 -s 0 -d 2 -p cbr -e 500 -c 2 -i 26 -a 2 -x {0.0 4.0 26 ------- null}
- -t 0.63 -s 0 -d 2 -p cbr -e 500 -c 2 -i 26 -a 2 -x {0.0 4.0 26 ------- null}
h -t 0.63 -s 0 -d 2 -p cbr -e 500 -c 2 -i 26 -a 2 -x {0.0 4.0 -1 ------- null}
r -t 0.631 -s 2 -d 3 -p cbr -e 500 -c 2 -i 21 -a 2 -x {0.0 4.0 21 ------- null}
+ -t 0.631 -s 3 -d 4 -p cbr -e 500 -c 2 -i 21 -a 2 -x {0.0 4.0 21 ------- null}
- -t 0.631 -s 3 -d 4 -p cbr -e 500 -c 2 -i 21 -a 2 -x {0.0 4.0 21 ------- null}
h -t 0.631 -s 3 -d 4 -p cbr -e 500 -c 2 -i 21 -a 2 -x {0.0 4.0 -1 ------- null}
r -t 0.634 -s 0 -d 2 -p cbr -e 500 -c 2 -i 24 -a 2 -x {0.0 4.0 24 ------- null}
+ -t 0.634 -s 2 -d 3 -p cbr -e 500 -c 2 -i 24 -a 2 -x {0.0 4.0 24 ------- null}
- -t 0.634 -s 2 -d 3 -p cbr -e 500 -c 2 -i 24 -a 2 -x {0.0 4.0 24 ------- null}
h -t 0.634 -s 2 -d 3 -p cbr -e 500 -c 2 -i 24 -a 2 -x {0.0 4.0 -1 ------- null}
r -t 0.635 -s 3 -d 4 -p cbr -e 500 -c 2 -i 19 -a 2 -x {0.0 4.0 19 ------- null}
+ -t 0.635 -s 0 -d 2 -p cbr -e 500 -c 2 -i 27 -a 2 -x {0.0 4.0 27 ------- null}
- -t 0.635 -s 0 -d 2 -p cbr -e 500 -c 2 -i 27 -a 2 -x {0.0 4.0 27 ------- null}
h -t 0.635 -s 0 -d 2 -p cbr -e 500 -c 2 -i 27 -a 2 -x {0.0 4.0 -1 ------- null}
r -t 0.636 -s 2 -d 3 -p cbr -e 500 -c 2 -i 22 -a 2 -x {0.0 4.0 22 ------- null}
+ -t 0.636 -s 3 -d 4 -p cbr -e 500 -c 2 -i 22 -a 2 -x {0.0 4.0 22 ------- null}
- -t 0.636 -s 3 -d 4 -p cbr -e 500 -c 2 -i 22 -a 2 -x {0.0 4.0 22 ------- null}
h -t 0.636 -s 3 -d 4 -p cbr -e 500 -c 2 -i 22 -a 2 -x {0.0 4.0 -1 ------- null}
r -t 0.639 -s 0 -d 2 -p cbr -e 500 -c 2 -i 25 -a 2 -x {0.0 4.0 25 ------- null}
+ -t 0.639 -s 2 -d 3 -p cbr -e 500 -c 2 -i 25 -a 2 -x {0.0 4.0 25 ------- null}
- -t 0.639 -s 2 -d 3 -p cbr -e 500 -c 2 -i 25 -a 2 -x {0.0 4.0 25 ------- null}
h -t 0.639 -s 2 -d 3 -p cbr -e 500 -c 2 -i 25 -a 2 -x {0.0 4.0 -1 ------- null}
r -t 0.64 -s 3 -d 4 -p cbr -e 500 -c 2 -i 20 -a 2 -x {0.0 4.0 20 ------- null}
+ -t 0.64 -s 0 -d 2 -p cbr -e 500 -c 2 -i 28 -a 2 -x {0.0 4.0 28 ------- null}
- -t 0.64 -s 0 -d 2 -p cbr -e 500 -c 2 -i 28 -a 2 -x {0.0 4.0 28 ------- null}
h -t 0.64 -s 0 -d 2 -p cbr -e 500 -c 2 -i 28 -a 2 -x {0.0 4.0 -1 ------- null}
r -t 0.641 -s 2 -d 3 -p cbr -e 500 -c 2 -i 23 -a 2 -x {0.0 4.0 23 ------- null}
+ -t 0.641 -s 3 -d 4 -p cbr -e 500 -c 2 -i 23 -a 2 -x {0.0 4.0 23 ------- null}
- -t 0.641 -s 3 -d 4 -p cbr -e 500 -c 2 -i 23 -a 2 -x {0.0 4.0 23 ------- null}
h -t 0.641 -s 3 -d 4 -p cbr -e 500 -c 2 -i 23 -a 2 -x {0.0 4.0 -1 ------- null}
r -t 0.644 -s 0 -d 2 -p cbr -e 500 -c 2 -i 26 -a 2 -x {0.0 4.0 26 ------- null}
+ -t 0.644 -s 2 -d 3 -p cbr -e 500 -c 2 -i 26 -a 2 -x {0.0 4.0 26 ------- null}
- -t 0.644 -s 2 -d 3 -p cbr -e 500 -c 2 -i 26 -a 2 -x {0.0 4.0 26 ------- null}
h -t 0.644 -s 2 -d 3 -p cbr -e 500 -c 2 -i 26 -a 2 -x {0.0 4.0 -1 ------- null}
r -t 0.645 -s 3 -d 4 -p cbr -e 500 -c 2 -i 21 -a 2 -x {0.0 4.0 21 ------- null}
+ -t 0.645 -s 0 -d 2 -p cbr -e 500 -c 2 -i 29 -a 2 -x {0.0 4.0 29 ------- null}
- -t 0.645 -s 0 -d 2 -p cbr -e 500 -c 2 -i 29 -a 2 -x {0.0 4.0 29 ------- null}
h -t 0.645 -s 0 -d 2 -p cbr -e 500 -c 2 -i 29 -a 2 -x {0.0 4.0 -1 ------- null}
r -t 0.646 -s 2 -d 3 -p cbr -e 500 -c 2 -i 24 -a 2 -x {0.0 4.0 24 ------- null}
+ -t 0.646 -s 3 -d 4 -p cbr -e 500 -c 2 -i 24 -a 2 -x {0.0 4.0 24 ------- null}
- -t 0.646 -s 3 -d 4 -p cbr -e 500 -c 2 -i 24 -a 2 -x {0.0 4.0 24 ------- null}
h -t 0.646 -s 3 -d 4 -p cbr -e 500 -c 2 -i 24 -a 2 -x {0.0 4.0 -1 ------- null}
r -t 0.649 -s 0 -d 2 -p cbr -e 500 -c 2 -i 27 -a 2 -x {0.0 4.0 27 ------- null}
+ -t 0.649 -s 2 -d 3 -p cbr -e 500 -c 2 -i 27 -a 2 -x {0.0 4.0 27 ------- null}
- -t 0.649 -s 2 -d 3 -p cbr -e 500 -c 2 -i 27 -a 2 -x {0.0 4.0 27 ------- null}
h -t 0.649 -s 2 -d 3 -p cbr -e 500 -c 2 -i 27 -a 2 -x {0.0 4.0 -1 ------- null}
r -t 0.65 -s 3 -d 4 -p cbr -e 500 -c 2 -i 22 -a 2 -x {0.0 4.0 22 ------- null}
+ -t 0.65 -s 0 -d 2 -p cbr -e 500 -c 2 -i 30 -a 2 -x {0.0 4.0 30 ------- null}
- -t 0.65 -s 0 -d 2 -p cbr -e 500 -c 2 -i 30 -a 2 -x {0.0 4.0 30 ------- null}
h -t 0.65 -s 0 -d 2 -p cbr -e 500 -c 2 -i 30 -a 2 -x {0.0 4.0 -1 ------- null}
r -t 0.651 -s 2 -d 3 -p cbr -e 500 -c 2 -i 25 -a 2 -x {0.0 4.0 25 ------- null}
+ -t 0.651 -s 3 -d 4 -p cbr -e 500 -c 2 -i 25 -a 2 -x {0.0 4.0 25 ------- null}
- -t 0.651 -s 3 -d 4 -p cbr -e 500 -c 2 -i 25 -a 2 -x {0.0 4.0 25 ------- null}
h -t 0.651 -s 3 -d 4 -p cbr -e 500 -c 2 -i 25 -a 2 -x {0.0 4.0 -1 ------- null}
r -t 0.654 -s 0 -d 2 -p cbr -e 500 -c 2 -i 28 -a 2 -x {0.0 4.0 28 ------- null}
+ -t 0.654 -s 2 -d 3 -p cbr -e 500 -c 2 -i 28 -a 2 -x {0.0 4.0 28 ------- null}
- -t 0.654 -s 2 -d 3 -p cbr -e 500 -c 2 -i 28 -a 2 -x {0.0 4.0 28 ------- null}
h -t 0.654 -s 2 -d 3 -p cbr -e 500 -c 2 -i 28 -a 2 -x {0.0 4.0 -1 ------- null}
r -t 0.655 -s 3 -d 4 -p cbr -e 500 -c 2 -i 23 -a 2 -x {0.0 4.0 23 ------- null}
+ -t 0.655 -s 0 -d 2 -p cbr -e 500 -c 2 -i 31 -a 2 -x {0.0 4.0 31 ------- null}
- -t 0.655 -s 0 -d 2 -p cbr -e 500 -c 2 -i 31 -a 2 -x {0.0 4.0 31 ------- null}
h -t 0.655 -s 0 -d 2 -p cbr -e 500 -c 2 -i 31 -a 2 -x {0.0 4.0 -1 ------- null}
r -t 0.656 -s 2 -d 3 -p cbr -e 500 -c 2 -i 26 -a 2 -x {0.0 4.0 26 ------- null}
+ -t 0.656 -s 3 -d 4 -p cbr -e 500 -c 2 -i 26 -a 2 -x {0.0 4.0 26 ------- null}
- -t 0.656 -s 3 -d 4 -p cbr -e 500 -c 2 -i 26 -a 2 -x {0.0 4.0 26 ------- null}
h -t 0.656 -s 3 -d 4 -p cbr -e 500 -c 2 -i 26 -a 2 -x {0.0 4.0 -1 ------- null}
r -t 0.659 -s 0 -d 2 -p cbr -e 500 -c 2 -i 29 -a 2 -x {0.0 4.0 29 ------- null}
+ -t 0.659 -s 2 -d 3 -p cbr -e 500 -c 2 -i 29 -a 2 -x {0.0 4.0 29 ------- null}
- -t 0.659 -s 2 -d 3 -p cbr -e 500 -c 2 -i 29 -a 2 -x {0.0 4.0 29 ------- null}
h -t 0.659 -s 2 -d 3 -p cbr -e 500 -c 2 -i 29 -a 2 -x {0.0 4.0 -1 ------- null}
r -t 0.66 -s 3 -d 4 -p cbr -e 500 -c 2 -i 24 -a 2 -x {0.0 4.0 24 ------- null}
+ -t 0.66 -s 0 -d 2 -p cbr -e 500 -c 2 -i 32 -a 2 -x {0.0 4.0 32 ------- null}
- -t 0.66 -s 0 -d 2 -p cbr -e 500 -c 2 -i 32 -a 2 -x {0.0 4.0 32 ------- null}
h -t 0.66 -s 0 -d 2 -p cbr -e 500 -c 2 -i 32 -a 2 -x {0.0 4.0 -1 ------- null}
r -t 0.661 -s 2 -d 3 -p cbr -e 500 -c 2 -i 27 -a 2 -x {0.0 4.0 27 ------- null}
+ -t 0.661 -s 3 -d 4 -p cbr -e 500 -c 2 -i 27 -a 2 -x {0.0 4.0 27 ------- null}
- -t 0.661 -s 3 -d 4 -p cbr -e 500 -c 2 -i 27 -a 2 -x {0.0 4.0 27 ------- null}
h -t 0.661 -s 3 -d 4 -p cbr -e 500 -c 2 -i 27 -a 2 -x {0.0 4.0 -1 ------- null}
r -t 0.664 -s 0 -d 2 -p cbr -e 500 -c 2 -i 30 -a 2 -x {0.0 4.0 30 ------- null}
+ -t 0.664 -s 2 -d 3 -p cbr -e 500 -c 2 -i 30 -a 2 -x {0.0 4.0 30 ------- null}
- -t 0.664 -s 2 -d 3 -p cbr -e 500 -c 2 -i 30 -a 2 -x {0.0 4.0 30 ------- null}
h -t 0.664 -s 2 -d 3 -p cbr -e 500 -c 2 -i 30 -a 2 -x {0.0 4.0 -1 ------- null}
r -t 0.665 -s 3 -d 4 -p cbr -e 500 -c 2 -i 25 -a 2 -x {0.0 4.0 25 ------- null}
+ -t 0.665 -s 0 -d 2 -p cbr -e 500 -c 2 -i 33 -a 2 -x {0.0 4.0 33 ------- null}
- -t 0.665 -s 0 -d 2 -p cbr -e 500 -c 2 -i 33 -a 2 -x {0.0 4.0 33 ------- null}
h -t 0.665 -s 0 -d 2 -p cbr -e 500 -c 2 -i 33 -a 2 -x {0.0 4.0 -1 ------- null}
r -t 0.666 -s 2 -d 3 -p cbr -e 500 -c 2 -i 28 -a 2 -x {0.0 4.0 28 ------- null}
+ -t 0.666 -s 3 -d 4 -p cbr -e 500 -c 2 -i 28 -a 2 -x {0.0 4.0 28 ------- null}
- -t 0.666 -s 3 -d 4 -p cbr -e 500 -c 2 -i 28 -a 2 -x {0.0 4.0 28 ------- null}
h -t 0.666 -s 3 -d 4 -p cbr -e 500 -c 2 -i 28 -a 2 -x {0.0 4.0 -1 ------- null}
r -t 0.669 -s 0 -d 2 -p cbr -e 500 -c 2 -i 31 -a 2 -x {0.0 4.0 31 ------- null}
+ -t 0.669 -s 2 -d 3 -p cbr -e 500 -c 2 -i 31 -a 2 -x {0.0 4.0 31 ------- null}