+ 0.5 0 2 cbr 500 ------- 2 0.0 4.0 0 0
- 0.5 0 2 cbr 500 ------- 2 0.0 4.0 0 0
+ 0.505 0 2 cbr 500 ------- 2 0.0 4.0 1 1
- 0.505 0 2 cbr 500 ------- 2 0.0 4.0 1 1
+ 0.51 0 2 cbr 500 ------- 2 0.0 4.0 2 2
- 0.51 0 2 cbr 500 ------- 2 0.0 4.0 2 2
r 0.514 0 2 cbr 500 ------- 2 0.0 4.0 0 0
+ 0.514 2 3 cbr 500 ------- 2 0.0 4.0 0 0
- 0.514 2 3 cbr 500 ------- 2 0.0 4.0 0 0
+ 0.515 0 2 cbr 500 ------- 2 0.0 4.0 3 3
- 0.515 0 2 cbr 500 ------- 2 0.0 4.0 3 3
r 0.519 0 2 cbr 500 ------- 2 0.0 4.0 1 1
+ 0.519 2 3 cbr 500 ------- 2 0.0 4.0 1 1
- 0.519 2 3 cbr 500 ------- 2 0.0 4.0 1 1
+ 0.52 0 2 cbr 500 ------- 2 0.0 4.0 4 4
- 0.52 0 2 cbr 500 ------- 2 0.0 4.0 4 4
r 0.524 0 2 cbr 500 ------- 2 0.0 4.0 2 2
+ 0.524 2 3 cbr 500 ------- 2 0.0 4.0 2 2
- 0.524 2 3 cbr 500 ------- 2 0.0 4.0 2 2
+ 0.525 0 2 cbr 500 ------- 2 0.0 4.0 5 5
- 0.525 0 2 cbr 500 ------- 2 0.0 4.0 5 5
r 0.526 2 3 cbr 500 ------- 2 0.0 4.0 0 0
+ 0.526 3 4 cbr 500 ------- 2 0.0 4.0 0 0
- 0.526 3 4 cbr 500 ------- 2 0.0 4.0 0 0
r 0.529 0 2 cbr 500 ------- 2 0.0 4.0 3 3
+ 0.529 2 3 cbr 500 ------- 2 0.0 4.0 3 3
- 0.529 2 3 cbr 500 ------- 2 0.0 4.0 3 3
+ 0.53 0 2 cbr 500 ------- 2 0.0 4.0 6 6
- 0.53 0 2 cbr 500 ------- 2 0.0 4.0 6 6
r 0.531 2 3 cbr 500 ------- 2 0.0 4.0 1 1
+ 0.531 3 4 cbr 500 ------- 2 0.0 4.0 1 1
- 0.531 3 4 cbr 500 ------- 2 0.0 4.0 1 1
r 0.534 0 2 cbr 500 ------- 2 0.0 4.0 4 4
+ 0.534 2 3 cbr 500 ------- 2 0.0 4.0 4 4
- 0.534 2 3 cbr 500 ------- 2 0.0 4.0 4 4
+ 0.535 0 2 cbr 500 ------- 2 0.0 4.0 7 7
- 0.535 0 2 cbr 500 ------- 2 0.0 4.0 7 7
r 0.536 2 3 cbr 500 ------- 2 0.0 4.0 2 2
+ 0.536 3 4 cbr 500 ------- 2 0.0 4.0 2 2
- 0.536 3 4 cbr 500 ------- 2 0.0 4.0 2 2
r 0.539 0 2 cbr 500 ------- 2 0.0 4.0 5 5
+ 0.539 2 3 cbr 500 ------- 2 0.0 4.0 5 5
- 0.539 2 3 cbr 500 ------- 2 0.0 4.0 5 5
r 0.54 3 4 cbr 500 ------- 2 0.0 4.0 0 0
+ 0.54 0 2 cbr 500 ------- 2 0.0 4.0 8 8
- 0.54 0 2 cbr 500 ------- 2 0.0 4.0 8 8
r 0.541 2 3 cbr 500 ------- 2 0.0 4.0 3 3
+ 0.541 3 4 cbr 500 ------- 2 0.0 4.0 3 3
- 0.541 3 4 cbr 500 ------- 2 0.0 4.0 3 3
r 0.544 0 2 cbr 500 ------- 2 0.0 4.0 6 6
+ 0.544 2 3 cbr 500 ------- 2 0.0 4.0 6 6
- 0.544 2 3 cbr 500 ------- 2 0.0 4.0 6 6
r 0.545 3 4 cbr 500 ------- 2 0.0 4.0 1 1
+ 0.545 0 2 cbr 500 ------- 2 0.0 4.0 9 9
- 0.545 0 2 cbr 500 ------- 2 0.0 4.0 9 9
r 0.546 2 3 cbr 500 ------- 2 0.0 4.0 4 4
+ 0.546 3 4 cbr 500 ------- 2 0.0 4.0 4 4
- 0.546 3 4 cbr 500 ------- 2 0.0 4.0 4 4
r 0.549 0 2 cbr 500 ------- 2 0.0 4.0 7 7
+ 0.549 2 3 cbr 500 ------- 2 0.0 4.0 7 7
- 0.549 2 3 cbr 500 ------- 2 0.0 4.0 7 7
r 0.55 3 4 cbr 500 ------- 2 0.0 4.0 2 2
+ 0.55 0 2 cbr 500 ------- 2 0.0 4.0 10 10
- 0.55 0 2 cbr 500 ------- 2 0.0 4.0 10 10
r 0.551 2 3 cbr 500 ------- 2 0.0 4.0 5 5
+ 0.551 3 4 cbr 500 ------- 2 0.0 4.0 5 5
- 0.551 3 4 cbr 500 ------- 2 0.0 4.0 5 5
r 0.554 0 2 cbr 500 ------- 2 0.0 4.0 8 8
+ 0.554 2 3 cbr 500 ------- 2 0.0 4.0 8 8
- 0.554 2 3 cbr 500 ------- 2 0.0 4.0 8 8
r 0.555 3 4 cbr 500 ------- 2 0.0 4.0 3 3
+ 0.555 0 2 cbr 500 ------- 2 0.0 4.0 11 11
- 0.555 0 2 cbr 500 ------- 2 0.0 4.0 11 11
r 0.556 2 3 cbr 500 ------- 2 0.0 4.0 6 6
+ 0.556 3 4 cbr 500 ------- 2 0.0 4.0 6 6
- 0.556 3 4 cbr 500 ------- 2 0.0 4.0 6 6
r 0.559 0 2 cbr 500 ------- 2 0.0 4.0 9 9
+ 0.559 2 3 cbr 500 ------- 2 0.0 4.0 9 9
- 0.559 2 3 cbr 500 ------- 2 0.0 4.0 9 9
r 0.56 3 4 cbr 500 ------- 2 0.0 4.0 4 4
+ 0.56 0 2 cbr 500 ------- 2 0.0 4.0 12 12
- 0.56 0 2 cbr 500 ------- 2 0.0 4.0 12 12
r 0.561 2 3 cbr 500 ------- 2 0.0 4.0 7 7
+ 0.561 3 4 cbr 500 ------- 2 0.0 4.0 7 7
- 0.561 3 4 cbr 500 ------- 2 0.0 4.0 7 7
r 0.564 0 2 cbr 500 ------- 2 0.0 4.0 10 10
+ 0.564 2 3 cbr 500 ------- 2 0.0 4.0 10 10
- 0.564 2 3 cbr 500 ------- 2 0.0 4.0 10 10
r 0.565 3 4 cbr 500 ------- 2 0.0 4.0 5 5
+ 0.565 0 2 cbr 500 ------- 2 0.0 4.0 13 13
- 0.565 0 2 cbr 500 ------- 2 0.0 4.0 13 13
r 0.566 2 3 cbr 500 ------- 2 0.0 4.0 8 8
+ 0.566 3 4 cbr 500 ------- 2 0.0 4.0 8 8
- 0.566 3 4 cbr 500 ------- 2 0.0 4.0 8 8
r 0.569 0 2 cbr 500 ------- 2 0.0 4.0 11 11
+ 0.569 2 3 cbr 500 ------- 2 0.0 4.0 11 11
- 0.569 2 3 cbr 500 ------- 2 0.0 4.0 11 11
r 0.57 3 4 cbr 500 ------- 2 0.0 4.0 6 6
+ 0.57 0 2 cbr 500 ------- 2 0.0 4.0 14 14
- 0.57 0 2 cbr 500 ------- 2 0.0 4.0 14 14
r 0.571 2 3 cbr 500 ------- 2 0.0 4.0 9 9
+ 0.571 3 4 cbr 500 ------- 2 0.0 4.0 9 9
- 0.571 3 4 cbr 500 ------- 2 0.0 4.0 9 9
r 0.574 0 2 cbr 500 ------- 2 0.0 4.0 12 12
+ 0.574 2 3 cbr 500 ------- 2 0.0 4.0 12 12
- 0.574 2 3 cbr 500 ------- 2 0.0 4.0 12 12
r 0.575 3 4 cbr 500 ------- 2 0.0 4.0 7 7
+ 0.575 0 2 cbr 500 ------- 2 0.0 4.0 15 15
- 0.575 0 2 cbr 500 ------- 2 0.0 4.0 15 15
r 0.576 2 3 cbr 500 ------- 2 0.0 4.0 10 10
+ 0.576 3 4 cbr 500 ------- 2 0.0 4.0 10 10
- 0.576 3 4 cbr 500 ------- 2 0.0 4.0 10 10
r 0.579 0 2 cbr 500 ------- 2 0.0 4.0 13 13
+ 0.579 2 3 cbr 500 ------- 2 0.0 4.0 13 13
- 0.579 2 3 cbr 500 ------- 2 0.0 4.0 13 13
r 0.58 3 4 cbr 500 ------- 2 0.0 4.0 8 8
+ 0.58 0 2 cbr 500 ------- 2 0.0 4.0 16 16
- 0.58 0 2 cbr 500 ------- 2 0.0 4.0 16 16
r 0.581 2 3 cbr 500 ------- 2 0.0 4.0 11 11
+ 0.581 3 4 cbr 500 ------- 2 0.0 4.0 11 11
- 0.581 3 4 cbr 500 ------- 2 0.0 4.0 11 11
r 0.584 0 2 cbr 500 ------- 2 0.0 4.0 14 14
+ 0.584 2 3 cbr 500 ------- 2 0.0 4.0 14 14
- 0.584 2 3 cbr 500 ------- 2 0.0 4.0 14 14
r 0.585 3 4 cbr 500 ------- 2 0.0 4.0 9 9
+ 0.585 0 2 cbr 500 ------- 2 0.0 4.0 17 17
- 0.585 0 2 cbr 500 ------- 2 0.0 4.0 17 17
r 0.586 2 3 cbr 500 ------- 2 0.0 4.0 12 12
+ 0.586 3 4 cbr 500 ------- 2 0.0 4.0 12 12
- 0.586 3 4 cbr 500 ------- 2 0.0 4.0 12 12
r 0.589 0 2 cbr 500 ------- 2 0.0 4.0 15 15
+ 0.589 2 3 cbr 500 ------- 2 0.0 4.0 15 15
- 0.589 2 3 cbr 500 ------- 2 0.0 4.0 15 15
r 0.59 3 4 cbr 500 ------- 2 0.0 4.0 10 10
+ 0.59 0 2 cbr 500 ------- 2 0.0 4.0 18 18
- 0.59 0 2 cbr 500 ------- 2 0.0 4.0 18 18
r 0.591 2 3 cbr 500 ------- 2 0.0 4.0 13 13
+ 0.591 3 4 cbr 500 ------- 2 0.0 4.0 13 13
- 0.591 3 4 cbr 500 ------- 2 0.0 4.0 13 13
r 0.594 0 2 cbr 500 ------- 2 0.0 4.0 16 16
+ 0.594 2 3 cbr 500 ------- 2 0.0 4.0 16 16
- 0.594 2 3 cbr 500 ------- 2 0.0 4.0 16 16
r 0.595 3 4 cbr 500 ------- 2 0.0 4.0 11 11
+ 0.595 0 2 cbr 500 ------- 2 0.0 4.0 19 19
- 0.595 0 2 cbr 500 ------- 2 0.0 4.0 19 19
r 0.596 2 3 cbr 500 ------- 2 0.0 4.0 14 14
+ 0.596 3 4 cbr 500 ------- 2 0.0 4.0 14 14
- 0.596 3 4 cbr 500 ------- 2 0.0 4.0 14 14
r 0.599 0 2 cbr 500 ------- 2 0.0 4.0 17 17
+ 0.599 2 3 cbr 500 ------- 2 0.0 4.0 17 17
- 0.599 2 3 cbr 500 ------- 2 0.0 4.0 17 17
r 0.6 3 4 cbr 500 ------- 2 0.0 4.0 12 12
+ 0.6 0 2 cbr 500 ------- 2 0.0 4.0 20 20
- 0.6 0 2 cbr 500 ------- 2 0.0 4.0 20 20
r 0.601 2 3 cbr 500 ------- 2 0.0 4.0 15 15
+ 0.601 3 4 cbr 500 ------- 2 0.0 4.0 15 15
- 0.601 3 4 cbr 500 ------- 2 0.0 4.0 15 15
r 0.604 0 2 cbr 500 ------- 2 0.0 4.0 18 18
+ 0.604 2 3 cbr 500 ------- 2 0.0 4.0 18 18
- 0.604 2 3 cbr 500 ------- 2 0.0 4.0 18 18
r 0.605 3 4 cbr 500 ------- 2 0.0 4.0 13 13
+ 0.605 0 2 cbr 500 ------- 2 0.0 4.0 21 21
- 0.605 0 2 cbr 500 ------- 2 0.0 4.0 21 21
r 0.606 2 3 cbr 500 ------- 2 0.0 4.0 16 16
+ 0.606 3 4 cbr 500 ------- 2 0.0 4.0 16 16
- 0.606 3 4 cbr 500 ------- 2 0.0 4.0 16 16
r 0.609 0 2 cbr 500 ------- 2 0.0 4.0 19 19
+ 0.609 2 3 cbr 500 ------- 2 0.0 4.0 19 19
- 0.609 2 3 cbr 500 ------- 2 0.0 4.0 19 19
r 0.61 3 4 cbr 500 ------- 2 0.0 4.0 14 14
+ 0.61 0 2 cbr 500 ------- 2 0.0 4.0 22 22
- 0.61 0 2 cbr 500 ------- 2 0.0 4.0 22 22
r 0.611 2 3 cbr 500 ------- 2 0.0 4.0 17 17
+ 0.611 3 4 cbr 500 ------- 2 0.0 4.0 17 17
- 0.611 3 4 cbr 500 ------- 2 0.0 4.0 17 17
r 0.614 0 2 cbr 500 ------- 2 0.0 4.0 20 20
+ 0.614 2 3 cbr 500 ------- 2 0.0 4.0 20 20
- 0.614 2 3 cbr 500 ------- 2 0.0 4.0 20 20
r 0.615 3 4 cbr 500 ------- 2 0.0 4.0 15 15
+ 0.615 0 2 cbr 500 ------- 2 0.0 4.0 23 23
- 0.615 0 2 cbr 500 ------- 2 0.0 4.0 23 23
r 0.616 2 3 cbr 500 ------- 2 0.0 4.0 18 18
+ 0.616 3 4 cbr 500 ------- 2 0.0 4.0 18 18
- 0.616 3 4 cbr 500 ------- 2 0.0 4.0 18 18
r 0.619 0 2 cbr 500 ------- 2 0.0 4.0 21 21
+ 0.619 2 3 cbr 500 ------- 2 0.0 4.0 21 21
- 0.619 2 3 cbr 500 ------- 2 0.0 4.0 21 21
r 0.62 3 4 cbr 500 ------- 2 0.0 4.0 16 16
+ 0.62 0 2 cbr 500 ------- 2 0.0 4.0 24 24
- 0.62 0 2 cbr 500 ------- 2 0.0 4.0 24 24
r 0.621 2 3 cbr 500 ------- 2 0.0 4.0 19 19
+ 0.621 3 4 cbr 500 ------- 2 0.0 4.0 19 19
- 0.621 3 4 cbr 500 ------- 2 0.0 4.0 19 19
r 0.624 0 2 cbr 500 ------- 2 0.0 4.0 22 22
+ 0.624 2 3 cbr 500 ------- 2 0.0 4.0 22 22
- 0.624 2 3 cbr 500 ------- 2 0.0 4.0 22 22
r 0.625 3 4 cbr 500 ------- 2 0.0 4.0 17 17
+ 0.625 0 2 cbr 500 ------- 2 0.0 4.0 25 25
- 0.625 0 2 cbr 500 ------- 2 0.0 4.0 25 25
r 0.626 2 3 cbr 500 ------- 2 0.0 4.0 20 20
+ 0.626 3 4 cbr 500 ------- 2 0.0 4.0 20 20
- 0.626 3 4 cbr 500 ------- 2 0.0 4.0 20 20
r 0.629 0 2 cbr 500 ------- 2 0.0 4.0 23 23
+ 0.629 2 3 cbr 500 ------- 2 0.0 4.0 23 23
- 0.629 2 3 cbr 500 ------- 2 0.0 4.0 23 23
r 0.63 3 4 cbr 500 ------- 2 0.0 4.0 18 18
+ 0.63 0 2 cbr 500 ------- 2 0.0 4.0 26 26
- 0.63 0 2 cbr 500 ------- 2 0.0 4.0 26 26
r 0.631 2 3 cbr 500 ------- 2 0.0 4.0 21 21
+ 0.631 3 4 cbr 500 ------- 2 0.0 4.0 21 21
- 0.631 3 4 cbr 500 ------- 2 0.0 4.0 21 21
r 0.634 0 2 cbr 500 ------- 2 0.0 4.0 24 24
+ 0.634 2 3 cbr 500 ------- 2 0.0 4.0 24 24
- 0.634 2 3 cbr 500 ------- 2 0.0 4.0 24 24
r 0.635 3 4 cbr 500 ------- 2 0.0 4.0 19 19
+ 0.635 0 2 cbr 500 ------- 2 0.0 4.0 27 27
- 0.635 0 2 cbr 500 ------- 2 0.0 4.0 27 27
r 0.636 2 3 cbr 500 ------- 2 0.0 4.0 22 22
+ 0.636 3 4 cbr 500 ------- 2 0.0 4.0 22 22
- 0.636 3 4 cbr 500 ------- 2 0.0 4.0 22 22
r 0.639 0 2 cbr 500 ------- 2 0.0 4.0 25 25
+ 0.639 2 3 cbr 500 ------- 2 0.0 4.0 25 25
- 0.639 2 3 cbr 500 ------- 2 0.0 4.0 25 25
r 0.64 3 4 cbr 500 ------- 2 0.0 4.0 20 20
+ 0.64 0 2 cbr 500 ------- 2 0.0 4.0 28 28
- 0.64 0 2 cbr 500 ------- 2 0.0 4.0 28 28
r 0.641 2 3 cbr 500 ------- 2 0.0 4.0 23 23
+ 0.641 3 4 cbr 500 ------- 2 0.0 4.0 23 23
- 0.641 3 4 cbr 500 ------- 2 0.0 4.0 23 23
r 0.644 0 2 cbr 500 ------- 2 0.0 4.0 26 26
+ 0.644 2 3 cbr 500 ------- 2 0.0 4.0 26 26
- 0.644 2 3 cbr 500 ------- 2 0.0 4.0 26 26
r 0.645 3 4 cbr 500 ------- 2 0.0 4.0 21 21
+ 0.645 0 2 cbr 500 ------- 2 0.0 4.0 29 29
- 0.645 0 2 cbr 500 ------- 2 0.0 4.0 29 29
r 0.646 2 3 cbr 500 ------- 2 0.0 4.0 24 24
+ 0.646 3 4 cbr 500 ------- 2 0.0 4.0 24 24
- 0.646 3 4 cbr 500 ------- 2 0.0 4.0 24 24
r 0.649 0 2 cbr 500 ------- 2 0.0 4.0 27 27
+ 0.649 2 3 cbr 500 ------- 2 0.0 4.0 27 27
- 0.649 2 3 cbr 500 ------- 2 0.0 4.0 27 27
r 0.65 3 4 cbr 500 ------- 2 0.0 4.0 22 22
+ 0.65 0 2 cbr 500 ------- 2 0.0 4.0 30 30
- 0.65 0 2 cbr 500 ------- 2 0.0 4.0 30 30
r 0.651 2 3 cbr 500 ------- 2 0.0 4.0 25 25
+ 0.651 3 4 cbr 500 ------- 2 0.0 4.0 25 25
- 0.651 3 4 cbr 500 ------- 2 0.0 4.0 25 25
r 0.654 0 2 cbr 500 ------- 2 0.0 4.0 28 28
+ 0.654 2 3 cbr 500 ------- 2 0.0 4.0 28 28
- 0.654 2 3 cbr 500 ------- 2 0.0 4.0 28 28
r 0.655 3 4 cbr 500 ------- 2 0.0 4.0 23 23
+ 0.655 0 2 cbr 500 ------- 2 0.0 4.0 31 31
- 0.655 0 2 cbr 500 ------- 2 0.0 4.0 31 31
r 0.656 2 3 cbr 500 ------- 2 0.0 4.0 26 26
+ 0.656 3 4 cbr 500 ------- 2 0.0 4.0 26 26
- 0.656 3 4 cbr 500 ------- 2 0.0 4.0 26 26
r 0.659 0 2 cbr 500 ------- 2 0.0 4.0 29 29
+ 0.659 2 3 cbr 500 ------- 2 0.0 4.0 29 29
- 0.659 2 3 cbr 500 ------- 2 0.0 4.0 29 29
r 0.66 3 4 cbr 500 ------- 2 0.0 4.0 24 24
+ 0.66 0 2 cbr 500 ------- 2 0.0 4.0 32 32
- 0.66 0 2 cbr 500 ------- 2 0.0 4.0 32 32
r 0.661 2 3 cbr 500 ------- 2 0.0 4.0 27 27
+ 0.661 3 4 cbr 500 ------- 2 0.0 4.0 27 27
- 0.661 3 4 cbr 500 ------- 2 0.0 4.0 27 27
r 0.664 0 2 cbr 500 ------- 2 0.0 4.0 30 30
+ 0.664 2 3 cbr 500 ------- 2 0.0 4.0 30 30
- 0.664 2 3 cbr 500 ------- 2 0.0 4.0 30 30
r 0.665 3 4 cbr 500 ------- 2 0.0 4.0 25 25
+ 0.665 0 2 cbr 500 ------- 2 0.0 4.0 33 33
- 0.665 0 2 cbr 500 ------- 2 0.0 4.0 33 33
r 0.666 2 3 cbr 500 ------- 2 0.0 4.0 28 28
+ 0.666 3 4 cbr 500 ------- 2 0.0 4.0 28 28
- 0.666 3 4 cbr 500 ------- 2 0.0 4.0 28 28
r 0.669 0 2 cbr 500 ------- 2 0.0 4.0 31 31
+ 0.669 2 3 cbr 500 ------- 2 0.0 4.0 31 31
- 0.669 2 3 cbr 500 ------- 2 0.0 4.0 31 31
r 0.67 3 4 cbr 500 ------- 2 0.0 4.0 26 26
+ 0.67 0 2 cbr 500 ------- 2 0.0 4.0 34 34
- 0.67 0 2 cbr 500 ------- 2 0.0 4.0 34 34
r 0.671 2 3 cbr 500 ------- 2 0.0 4.0 29 29
+ 0.671 3 4 cbr 500 ------- 2 0.0 4.0 29 29
- 0.671 3 4 cbr 500 ------- 2 0.0 4.0 29 29
r 0.674 0 2 cbr 500 ------- 2 0.0 4.0 32 32
+ 0.674 2 3 cbr 500 ------- 2 0.0 4.0 32 32
- 0.674 2 3 cbr 500 ------- 2 0.0 4.0 32 32
r 0.675 3 4 cbr 500 ------- 2 0.0 4.0 27 27
+ 0.675 0 2 cbr 500 ------- 2 0.0 4.0 35 35
- 0.675 0 2 cbr 500 ------- 2 0.0 4.0 35 35
r 0.676 2 3 cbr 500 ------- 2 0.0 4.0 30 30
+ 0.676 3 4 cbr 500 ------- 2 0.0 4.0 30 30
- 0.676 3 4 cbr 500 ------- 2 0.0 4.0 30 30
r 0.679 0 2 cbr 500 ------- 2 0.0 4.0 33 33
+ 0.679 2 3 cbr 500 ------- 2 0.0 4.0 33 33
- 0.679 2 3 cbr 500 ------- 2 0.0 4.0 33 33
r 0.68 3 4 cbr 500 ------- 2 0.0 4.0 28 28
+ 0.68 0 2 cbr 500 ------- 2 0.0 4.0 36 36
- 0.68 0 2 cbr 500 ------- 2 0.0 4.0 36 36
r 0.681 2 3 cbr 500 ------- 2 0.0 4.0 31 31
+ 0.681 3 4 cbr 500 ------- 2 0.0 4.0 31 31
- 0.681 3 4 cbr 500 ------- 2 0.0 4.0 31 31
r 0.684 0 2 cbr 500 ------- 2 0.0 4.0 34 34
+ 0.684 2 3 cbr 500 ------- 2 0.0 4.0 34 34
- 0.684 2 3 cbr 500 ------- 2 0.0 4.0 34 34
r 0.685 3 4 cbr 500 ------- 2 0.0 4.0 29 29
+ 0.685 0 2 cbr 500 ------- 2 0.0 4.0 37 37
- 0.685 0 2 cbr 500 ------- 2 0.0 4.0 37 37
r 0.686 2 3 cbr 500 ------- 2 0.0 4.0 32 32
+ 0.686 3 4 cbr 500 ------- 2 0.0 4.0 32 32
- 0.686 3 4 cbr 500 ------- 2 0.0 4.0 32 32
r 0.689 0 2 cbr 500 ------- 2 0.0 4.0 35 35
+ 0.689 2 3 cbr 500 ------- 2 0.0 4.0 35 35
- 0.689 2 3 cbr 500 ------- 2 0.0 4.0 35 35
r 0.69 3 4 cbr 500 ------- 2 0.0 4.0 30 30
+ 0.69 0 2 cbr 500 ------- 2 0.0 4.0 38 38
- 0.69 0 2 cbr 500 ------- 2 0.0 4.0 38 38
r 0.691 2 3 cbr 500 ------- 2 0.0 4.0 33 33
+ 0.691 3 4 cbr 500 ------- 2 0.0 4.0 33 33
- 0.691 3 4 cbr 500 ------- 2 0.0 4.0 33 33
r 0.694 0 2 cbr 500 ------- 2 0.0 4.0 36 36
+ 0.694 2 3 cbr 500 ------- 2 0.0 4.0 36 36
- 0.694 2 3 cbr 500 ------- 2 0.0 4.0 36 36
r 0.695 3 4 cbr 500 ------- 2 0.0 4.0 31 31
+ 0.695 0 2 cbr 500 ------- 2 0.0 4.0 39 39
- 0.695 0 2 cbr 500 ------- 2 0.0 4.0 39 39
r 0.696 2 3 cbr 500 ------- 2 0.0 4.0 34 34
+ 0.696 3 4 cbr 500 ------- 2 0.0 4.0 34 34
- 0.696 3 4 cbr 500 ------- 2 0.0 4.0 34 34
r 0.699 0 2 cbr 500 ------- 2 0.0 4.0 37 37
+ 0.699 2 3 cbr 500 ------- 2 0.0 4.0 37 37
- 0.699 2 3 cbr 500 ------- 2 0.0 4.0 37 37
r 0.7 3 4 cbr 500 ------- 2 0.0 4.0 32 32
+ 0.7 0 2 cbr 500 ------- 2 0.0 4.0 40 40
- 0.7 0 2 cbr 500 ------- 2 0.0 4.0 40 40
r 0.701 2 3 cbr 500 ------- 2 0.0 4.0 35 35
+ 0.701 3 4 cbr 500 ------- 2 0.0 4.0 35 35
- 0.701 3 4 cbr 500 ------- 2 0.0 4.0 35 35
r 0.704 0 2 cbr 500 ------- 2 0.0 4.0 38 38
+ 0.704 2 3 cbr 500 ------- 2 0.0 4.0 38 38
- 0.704 2 3 cbr 500 ------- 2 0.0 4.0 38 38
r 0.705 3 4 cbr 500 ------- 2 0.0 4.0 33 33
+ 0.705 0 2 cbr 500 ------- 2 0.0 4.0 41 41
- 0.705 0 2 cbr 500 ------- 2 0.0 4.0 41 41
r 0.706 2 3 cbr 500 ------- 2 0.0 4.0 36 36
+ 0.706 3 4 cbr 500 ------- 2 0.0 4.0 36 36
- 0.706 3 4 cbr 500 ------- 2 0.0 4.0 36 36
r 0.709 0 2 cbr 500 ------- 2 0.0 4.0 39 39
+ 0.709 2 3 cbr 500 ------- 2 0.0 4.0 39 39
- 0.709 2 3 cbr 500 ------- 2 0.0 4.0 39 39
r 0.71 3 4 cbr 500 ------- 2 0.0 4.0 34 34
+ 0.71 0 2 cbr 500 ------- 2 0.0 4.0 42 42
- 0.71 0 2 cbr 500 ------- 2 0.0 4.0 42 42
r 0.711 2 3 cbr 500 ------- 2 0.0 4.0 37 37
+ 0.711 3 4 cbr 500 ------- 2 0.0 4.0 37 37
- 0.711 3 4 cbr 500 ------- 2 0.0 4.0 37 37
r 0.714 0 2 cbr 500 ------- 2 0.0 4.0 40 40
+ 0.714 2 3 cbr 500 ------- 2 0.0 4.0 40 40
- 0.714 2 3 cbr 500 ------- 2 0.0 4.0 40 40
r 0.715 3 4 cbr 500 ------- 2 0.0 4.0 35 35
+ 0.715 0 2 cbr 500 ------- 2 0.0 4.0 43 43
- 0.715 0 2 cbr 500 ------- 2 0.0 4.0 43 43
r 0.716 2 3 cbr 500 ------- 2 0.0 4.0 38 38
+ 0.716 3 4 cbr 500 ------- 2 0.0 4.0 38 38
- 0.716 3 4 cbr 500 ------- 2 0.0 4.0 38 38
r 0.719 0 2 cbr 500 ------- 2 0.0 4.0 41 41
+ 0.719 2 3 cbr 500 ------- 2 0.0 4.0 41 41
- 0.719 2 3 cbr 500 ------- 2 0.0 4.0 41 41
r 0.72 3 4 cbr 500 ------- 2 0.0 4.0 36 36
+ 0.72 0 2 cbr 500 ------- 2 0.0 4.0 44 44
- 0.72 0 2 cbr 500 ------- 2 0.0 4.0 44 44
r 0.721 2 3 cbr 500 ------- 2 0.0 4.0 39 39
+ 0.721 3 4 cbr 500 ------- 2 0.0 4.0 39 39
- 0.721 3 4 cbr 500 ------- 2 0.0 4.0 39 39
r 0.724 0 2 cbr 500 ------- 2 0.0 4.0 42 42
+ 0.724 2 3 cbr 500 ------- 2 0.0 4.0 42 42
- 0.724 2 3 cbr 500 ------- 2 0.0 4.0 42 42
r 0.725 3 4 cbr 500 ------- 2 0.0 4.0 37 37
+ 0.725 0 2 cbr 500 ------- 2 0.0 4.0 45 45
- 0.725 0 2 cbr 500 ------- 2 0.0 4.0 45 45
r 0.726 2 3 cbr 500 ------- 2 0.0 4.0 40 40
+ 0.726 3 4 cbr 500 ------- 2 0.0 4.0 40 40
- 0.726 3 4 cbr 500 ------- 2 0.0 4.0 40 40
r 0.729 0 2 cbr 500 ------- 2 0.0 4.0 43 43
+ 0.729 2 3 cbr 500 ------- 2 0.0 4.0 43 43
- 0.729 2 3 cbr 500 ------- 2 0.0 4.0 43 43
r 0.73 3 4 cbr 500 ------- 2 0.0 4.0 38 38
+ 0.73 0 2 cbr 500 ------- 2 0.0 4.0 46 46
- 0.73 0 2 cbr 500 ------- 2 0.0 4.0 46 46
r 0.731 2 3 cbr 500 ------- 2 0.0 4.0 41 41
+ 0.731 3 4 cbr 500 ------- 2 0.0 4.0 41 41
- 0.731 3 4 cbr 500 ------- 2 0.0 4.0 41 41
r 0.734 0 2 cbr 500 ------- 2 0.0 4.0 44 44
+ 0.734 2 3 cbr 500 ------- 2 0.0 4.0 44 44
- 0.734 2 3 cbr 500 ------- 2 0.0 4.0 44 44
r 0.735 3 4 cbr 500 ------- 2 0.0 4.0 39 39
+ 0.735 0 2 cbr 500 ------- 2 0.0 4.0 47 47
- 0.735 0 2 cbr 500 ------- 2 0.0 4.0 47 47
r 0.736 2 3 cbr 500 ------- 2 0.0 4.0 42 42
+ 0.736 3 4 cbr 500 ------- 2 0.0 4.0 42 42
- 0.736 3 4 cbr 500 ------- 2 0.0 4.0 42 42
r 0.739 0 2 cbr 500 ------- 2 0.0 4.0 45 45
+ 0.739 2 3 cbr 500 ------- 2 0.0 4.0 45 45
- 0.739 2 3 cbr 500 ------- 2 0.0 4.0 45 45
r 0.74 3 4 cbr 500 ------- 2 0.0 4.0 40 40
+ 0.74 0 2 cbr 500 ------- 2 0.0 4.0 48 48
- 0.74 0 2 cbr 500 ------- 2 0.0 4.0 48 48
r 0.741 2 3 cbr 500 ------- 2 0.0 4.0 43 43
+ 0.741 3 4 cbr 500 ------- 2 0.0 4.0 43 43
- 0.741 3 4 cbr 500 ------- 2 0.0 4.0 43 43
r 0.744 0 2 cbr 500 ------- 2 0.0 4.0 46 46
+ 0.744 2 3 cbr 500 ------- 2 0.0 4.0 46 46
- 0.744 2 3 cbr 500 ------- 2 0.0 4.0 46 46
r 0.745 3 4 cbr 500 ------- 2 0.0 4.0 41 41
+ 0.745 0 2 cbr 500 ------- 2 0.0 4.0 49 49
- 0.745 0 2 cbr 500 ------- 2 0.0 4.0 49 49
r 0.746 2 3 cbr 500 ------- 2 0.0 4.0 44 44
+ 0.746 3 4 cbr 500 ------- 2 0.0 4.0 44 44
- 0.746 3 4 cbr 500 ------- 2 0.0 4.0 44 44
r 0.749 0 2 cbr 500 ------- 2 0.0 4.0 47 47
+ 0.749 2 3 cbr 500 ------- 2 0.0 4.0 47 47
- 0.749 2 3 cbr 500 ------- 2 0.0 4.0 47 47
r 0.75 3 4 cbr 500 ------- 2 0.0 4.0 42 42
+ 0.75 0 2 cbr 500 ------- 2 0.0 4.0 50 50
- 0.75 0 2 cbr 500 ------- 2 0.0 4.0 50 50
r 0.751 2 3 cbr 500 ------- 2 0.0 4.0 45 45
+ 0.751 3 4 cbr 500 ------- 2 0.0 4.0 45 45
- 0.751 3 4 cbr 500 ------- 2 0.0 4.0 45 45
r 0.754 0 2 cbr 500 ------- 2 0.0 4.0 48 48
+ 0.754 2 3 cbr 500 ------- 2 0.0 4.0 48 48
- 0.754 2 3 cbr 500 ------- 2 0.0 4.0 48 48
r 0.755 3 4 cbr 500 ------- 2 0.0 4.0 43 43
+ 0.755 0 2 cbr 500 ------- 2 0.0 4.0 51 51
- 0.755 0 2 cbr 500 ------- 2 0.0 4.0 51 51
r 0.756 2 3 cbr 500 ------- 2 0.0 4.0 46 46
+ 0.756 3 4 cbr 500 ------- 2 0.0 4.0 46 46
- 0.756 3 4 cbr 500 ------- 2 0.0 4.0 46 46
r 0.759 0 2 cbr 500 ------- 2 0.0 4.0 49 49
+ 0.759 2 3 cbr 500 ------- 2 0.0 4.0 49 49
- 0.759 2 3 cbr 500 ------- 2 0.0 4.0 49 49
r 0.76 3 4 cbr 500 ------- 2 0.0 4.0 44 44
+ 0.76 0 2 cbr 500 ------- 2 0.0 4.0 52 52
- 0.76 0 2 cbr 500 ------- 2 0.0 4.0 52 52
r 0.761 2 3 cbr 500 ------- 2 0.0 4.0 47 47
+ 0.761 3 4 cbr 500 ------- 2 0.0 4.0 47 47
- 0.761 3 4 cbr 500 ------- 2 0.0 4.0 47 47
r 0.764 0 2 cbr 500 ------- 2 0.0 4.0 50 50
+ 0.764 2 3 cbr 500 ------- 2 0.0 4.0 50 50
- 0.764 2 3 cbr 500 ------- 2 0.0 4.0 50 50
r 0.765 3 4 cbr 500 ------- 2 0.0 4.0 45 45
+ 0.765 0 2 cbr 500 ------- 2 0.0 4.0 53 53
- 0.765 0 2 cbr 500 ------- 2 0.0 4.0 53 53
r 0.766 2 3 cbr 500 ------- 2 0.0 4.0 48 48
+ 0.766 3 4 cbr 500 ------- 2 0.0 4.0 48 48
- 0.766 3 4 cbr 500 ------- 2 0.0 4.0 48 48
r 0.769 0 2 cbr 500 ------- 2 0.0 4.0 51 51
+ 0.769 2 3 cbr 500 ------- 2 0.0 4.0 51 51
- 0.769 2 3 cbr 500 ------- 2 0.0 4.0 51 51
r 0.77 3 4 cbr 500 ------- 2 0.0 4.0 46 46
+ 0.77 0 2 cbr 500 ------- 2 0.0 4.0 54 54
- 0.77 0 2 cbr 500 ------- 2 0.0 4.0 54 54
r 0.771 2 3 cbr 500 ------- 2 0.0 4.0 49 49
+ 0.771 3 4 cbr 500 ------- 2 0.0 4.0 49 49
- 0.771 3 4 cbr 500 ------- 2 0.0 4.0 49 49
r 0.774 0 2 cbr 500 ------- 2 0.0 4.0 52 52
+ 0.774 2 3 cbr 500 ------- 2 0.0 4.0 52 52
- 0.774 2 3 cbr 500 ------- 2 0.0 4.0 52 52
r 0.775 3 4 cbr 500 ------- 2 0.0 4.0 47 47
+ 0.775 0 2 cbr 500 ------- 2 0.0 4.0 55 55
- 0.775 0 2 cbr 500 ------- 2 0.0 4.0 55 55
r 0.776 2 3 cbr 500 ------- 2 0.0 4.0 50 50
+ 0.776 3 4 cbr 500 ------- 2 0.0 4.0 50 50
- 0.776 3 4 cbr 500 ------- 2 0.0 4.0 50 50
r 0.779 0 2 cbr 500 ------- 2 0.0 4.0 53 53
+ 0.779 2 3 cbr 500 ------- 2 0.0 4.0 53 53
- 0.779 2 3 cbr 500 ------- 2 0.0 4.0 53 53
r 0.78 3 4 cbr 500 ------- 2 0.0 4.0 48 48
+ 0.78 0 2 cbr 500 ------- 2 0.0 4.0 56 56
- 0.78 0 2 cbr 500 ------- 2 0.0 4.0 56 56
r 0.781 2 3 cbr 500 ------- 2 0.0 4.0 51 51
+ 0.781 3 4 cbr 500 ------- 2 0.0 4.0 51 51
- 0.781 3 4 cbr 500 ------- 2 0.0 4.0 51 51
r 0.784 0 2 cbr 500 ------- 2 0.0 4.0 54 54
+ 0.784 2 3 cbr 500 ------- 2 0.0 4.0 54 54
- 0.784 2 3 cbr 500 ------- 2 0.0 4.0 54 54
r 0.785 3 4 cbr 500 ------- 2 0.0 4.0 49 49
+ 0.785 0 2 cbr 500 ------- 2 0.0 4.0 57 57
- 0.785 0 2 cbr 500 ------- 2 0.0 4.0 57 57
r 0.786 2 3 cbr 500 ------- 2 0.0 4.0 52 52
+ 0.786 3 4 cbr 500 ------- 2 0.0 4.0 52 52
- 0.786 3 4 cbr 500 ------- 2 0.0 4.0 52 52
r 0.789 0 2 cbr 500 ------- 2 0.0 4.0 55 55
+ 0.789 2 3 cbr 500 ------- 2 0.0 4.0 55 55
- 0.789 2 3 cbr 500 ------- 2 0.0 4.0 55 55
r 0.79 3 4 cbr 500 ------- 2 0.0 4.0 50 50
+ 0.79 0 2 cbr 500 ------- 2 0.0 4.0 58 58
- 0.79 0 2 cbr 500 ------- 2 0.0 4.0 58 58
r 0.791 2 3 cbr 500 ------- 2 0.0 4.0 53 53
+ 0.791 3 4 cbr 500 ------- 2 0.0 4.0 53 53
- 0.791 3 4 cbr 500 ------- 2 0.0 4.0 53 53
r 0.794 0 2 cbr 500 ------- 2 0.0 4.0 56 56
+ 0.794 2 3 cbr 500 ------- 2 0.0 4.0 56 56
- 0.794 2 3 cbr 500 ------- 2 0.0 4.0 56 56
r 0.795 3 4 cbr 500 ------- 2 0.0 4.0 51 51
+ 0.795 0 2 cbr 500 ------- 2 0.0 4.0 59 59
- 0.795 0 2 cbr 500 ------- 2 0.0 4.0 59 59
r 0.796 2 3 cbr 500 ------- 2 0.0 4.0 54 54
+ 0.796 3 4 cbr 500 ------- 2 0.0 4.0 54 54
- 0.796 3 4 cbr 500 ------- 2 0.0 4.0 54 54
r 0.799 0 2 cbr 500 ------- 2 0.0 4.0 57 57
+ 0.799 2 3 cbr 500 ------- 2 0.0 4.0 57 57
- 0.799 2 3 cbr 500 ------- 2 0.0 4.0 57 57
r 0.8 3 4 cbr 500 ------- 2 0.0 4.0 52 52
+ 0.8 0 2 cbr 500 ------- 2 0.0 4.0 60 60
- 0.8 0 2 cbr 500 ------- 2 0.0 4.0 60 60
r 0.801 2 3 cbr 500 ------- 2 0.0 4.0 55 55
+ 0.801 3 4 cbr 500 ------- 2 0.0 4.0 55 55
- 0.801 3 4 cbr 500 ------- 2 0.0 4.0 55 55
r 0.804 0 2 cbr 500 ------- 2 0.0 4.0 58 58
+ 0.804 2 3 cbr 500 ------- 2 0.0 4.0 58 58
- 0.804 2 3 cbr 500 ------- 2 0.0 4.0 58 58
r 0.805 3 4 cbr 500 ------- 2 0.0 4.0 53 53
+ 0.805 0 2 cbr 500 ------- 2 0.0 4.0 61 61
- 0.805 0 2 cbr 500 ------- 2 0.0 4.0 61 61
r 0.806 2 3 cbr 500 ------- 2 0.0 4.0 56 56
+ 0.806 3 4 cbr 500 ------- 2 0.0 4.0 56 56
- 0.806 3 4 cbr 500 ------- 2 0.0 4.0 56 56
r 0.809 0 2 cbr 500 ------- 2 0.0 4.0 59 59
+ 0.809 2 3 cbr 500 ------- 2 0.0 4.0 59 59
- 0.809 2 3 cbr 500 ------- 2 0.0 4.0 59 59
r 0.81 3 4 cbr 500 ------- 2 0.0 4.0 54 54
+ 0.81 0 2 cbr 500 ------- 2 0.0 4.0 62 62
- 0.81 0 2 cbr 500 ------- 2 0.0 4.0 62 62
r 0.811 2 3 cbr 500 ------- 2 0.0 4.0 57 57
+ 0.811 3 4 cbr 500 ------- 2 0.0 4.0 57 57
- 0.811 3 4 cbr 500 ------- 2 0.0 4.0 57 57
r 0.814 0 2 cbr 500 ------- 2 0.0 4.0 60 60
+ 0.814 2 3 cbr 500 ------- 2 0.0 4.0 60 60
- 0.814 2 3 cbr 500 ------- 2 0.0 4.0 60 60
r 0.815 3 4 cbr 500 ------- 2 0.0 4.0 55 55
+ 0.815 0 2 cbr 500 ------- 2 0.0 4.0 63 63
- 0.815 0 2 cbr 500 ------- 2 0.0 4.0 63 63
r 0.816 2 3 cbr 500 ------- 2 0.0 4.0 58 58
+ 0.816 3 4 cbr 500 ------- 2 0.0 4.0 58 58
- 0.816 3 4 cbr 500 ------- 2 0.0 4.0 58 58
r 0.819 0 2 cbr 500 ------- 2 0.0 4.0 61 61
+ 0.819 2 3 cbr 500 ------- 2 0.0 4.0 61 61
- 0.819 2 3 cbr 500 ------- 2 0.0 4.0 61 61
r 0.82 3 4 cbr 500 ------- 2 0.0 4.0 56 56
+ 0.82 0 2 cbr 500 ------- 2 0.0 4.0 64 64
- 0.82 0 2 cbr 500 ------- 2 0.0 4.0 64 64
r 0.821 2 3 cbr 500 ------- 2 0.0 4.0 59 59
+ 0.821 3 4 cbr 500 ------- 2 0.0 4.0 59 59
- 0.821 3 4 cbr 500 ------- 2 0.0 4.0 59 59
r 0.824 0 2 cbr 500 ------- 2 0.0 4.0 62 62
+ 0.824 2 3 cbr 500 ------- 2 0.0 4.0 62 62
- 0.824 2 3 cbr 500 ------- 2 0.0 4.0 62 62
r 0.825 3 4 cbr 500 ------- 2 0.0 4.0 57 57
+ 0.825 0 2 cbr 500 ------- 2 0.0 4.0 65 65
- 0.825 0 2 cbr 500 ------- 2 0.0 4.0 65 65
r 0.826 2 3 cbr 500 ------- 2 0.0 4.0 60 60
+ 0.826 3 4 cbr 500 ------- 2 0.0 4.0 60 60
- 0.826 3 4 cbr 500 ------- 2 0.0 4.0 60 60
r 0.829 0 2 cbr 500 ------- 2 0.0 4.0 63 63
+ 0.829 2 3 cbr 500 ------- 2 0.0 4.0 63 63
- 0.829 2 3 cbr 500 ------- 2 0.0 4.0 63 63
r 0.83 3 4 cbr 500 ------- 2 0.0 4.0 58 58
+ 0.83 0 2 cbr 500 ------- 2 0.0 4.0 66 66
- 0.83 0 2 cbr 500 ------- 2 0.0 4.0 66 66
r 0.831 2 3 cbr 500 ------- 2 0.0 4.0 61 61
+ 0.831 3 4 cbr 500 ------- 2 0.0 4.0 61 61
- 0.831 3 4 cbr 500 ------- 2 0.0 4.0 61 61
r 0.834 0 2 cbr 500 ------- 2 0.0 4.0 64 64
+ 0.834 2 3 cbr 500 ------- 2 0.0 4.0 64 64
- 0.834 2 3 cbr 500 ------- 2 0.0 4.0 64 64
r 0.835 3 4 cbr 500 ------- 2 0.0 4.0 59 59
+ 0.835 0 2 cbr 500 ------- 2 0.0 4.0 67 67
- 0.835 0 2 cbr 500 ------- 2 0.0 4.0 67 67
r 0.836 2 3 cbr 500 ------- 2 0.0 4.0 62 62
+ 0.836 3 4 cbr 500 ------- 2 0.0 4.0 62 62
- 0.836 3 4 cbr 500 ------- 2 0.0 4.0 62 62
r 0.839 0 2 cbr 500 ------- 2 0.0 4.0 65 65
+ 0.839 2 3 cbr 500 ------- 2 0.0 4.0 65 65
- 0.839 2 3 cbr 500 ------- 2 0.0 4.0 65 65
r 0.84 3 4 cbr 500 ------- 2 0.0 4.0 60 60
+ 0.84 0 2 cbr 500 ------- 2 0.0 4.0 68 68
- 0.84 0 2 cbr 500 ------- 2 0.0 4.0 68 68
r 0.841 2 3 cbr 500 ------- 2 0.0 4.0 63 63
+ 0.841 3 4 cbr 500 ------- 2 0.0 4.0 63 63
- 0.841 3 4 cbr 500 ------- 2 0.0 4.0 63 63
r 0.844 0 2 cbr 500 ------- 2 0.0 4.0 66 66
+ 0.844 2 3 cbr 500 ------- 2 0.0 4.0 66 66
- 0.844 2 3 cbr 500 ------- 2 0.0 4.0 66 66
r 0.845 3 4 cbr 500 ------- 2 0.0 4.0 61 61
+ 0.845 0 2 cbr 500 ------- 2 0.0 4.0 69 69
- 0.845 0 2 cbr 500 ------- 2 0.0 4.0 69 69
r 0.846 2 3 cbr 500 ------- 2 0.0 4.0 64 64
+ 0.846 3 4 cbr 500 ------- 2 0.0 4.0 64 64
- 0.846 3 4 cbr 500 ------- 2 0.0 4.0 64 64
r 0.849 0 2 cbr 500 ------- 2 0.0 4.0 67 67
+ 0.849 2 3 cbr 500 ------- 2 0.0 4.0 67 67
- 0.849 2 3 cbr 500 ------- 2 0.0 4.0 67 67
r 0.85 3 4 cbr 500 ------- 2 0.0 4.0 62 62
+ 0.85 0 2 cbr 500 ------- 2 0.0 4.0 70 70
- 0.85 0 2 cbr 500 ------- 2 0.0 4.0 70 70
r 0.851 2 3 cbr 500 ------- 2 0.0 4.0 65 65
+ 0.851 3 4 cbr 500 ------- 2 0.0 4.0 65 65
- 0.851 3 4 cbr 500 ------- 2 0.0 4.0 65 65
r 0.854 0 2 cbr 500 ------- 2 0.0 4.0 68 68
+ 0.854 2 3 cbr 500 ------- 2 0.0 4.0 68 68
- 0.854 2 3 cbr 500 ------- 2 0.0 4.0 68 68
r 0.855 3 4 cbr 500 ------- 2 0.0 4.0 63 63
+ 0.855 0 2 cbr 500 ------- 2 0.0 4.0 71 71
- 0.855 0 2 cbr 500 ------- 2 0.0 4.0 71 71
r 0.856 2 3 cbr 500 ------- 2 0.0 4.0 66 66
+ 0.856 3 4 cbr 500 ------- 2 0.0 4.0 66 66
- 0.856 3 4 cbr 500 ------- 2 0.0 4.0 66 66
r 0.859 0 2 cbr 500 ------- 2 0.0 4.0 69 69
+ 0.859 2 3 cbr 500 ------- 2 0.0 4.0 69 69
- 0.859 2 3 cbr 500 ------- 2 0.0 4.0 69 69
r 0.86 3 4 cbr 500 ------- 2 0.0 4.0 64 64
+ 0.86 0 2 cbr 500 ------- 2 0.0 4.0 72 72
- 0.86 0 2 cbr 500 ------- 2 0.0 4.0 72 72
r 0.861 2 3 cbr 500 ------- 2 0.0 4.0 67 67
+ 0.861 3 4 cbr 500 ------- 2 0.0 4.0 67 67
- 0.861 3 4 cbr 500 ------- 2 0.0 4.0 67 67
r 0.864 0 2 cbr 500 ------- 2 0.0 4.0 70 70
+ 0.864 2 3 cbr 500 ------- 2 0.0 4.0 70 70
- 0.864 2 3 cbr 500 ------- 2 0.0 4.0 70 70
r 0.865 3 4 cbr 500 ------- 2 0.0 4.0 65 65
+ 0.865 0 2 cbr 500 ------- 2 0.0 4.0 73 73
- 0.865 0 2 cbr 500 ------- 2 0.0 4.0 73 73
r 0.866 2 3 cbr 500 ------- 2 0.0 4.0 68 68
+ 0.866 3 4 cbr 500 ------- 2 0.0 4.0 68 68
- 0.866 3 4 cbr 500 ------- 2 0.0 4.0 68 68
r 0.869 0 2 cbr 500 ------- 2 0.0 4.0 71 71
+ 0.869 2 3 cbr 500 ------- 2 0.0 4.0 71 71
- 0.869 2 3 cbr 500 ------- 2 0.0 4.0 71 71
r 0.87 3 4 cbr 500 ------- 2 0.0 4.0 66 66
+ 0.87 0 2 cbr 500 ------- 2 0.0 4.0 74 74
- 0.87 0 2 cbr 500 ------- 2 0.0 4.0 74 74
r 0.871 2 3 cbr 500 ------- 2 0.0 4.0 69 69
+ 0.871 3 4 cbr 500 ------- 2 0.0 4.0 69 69
- 0.871 3 4 cbr 500 ------- 2 0.0 4.0 69 69
r 0.874 0 2 cbr 500 ------- 2 0.0 4.0 72 72
+ 0.874 2 3 cbr 500 ------- 2 0.0 4.0 72 72
- 0.874 2 3 cbr 500 ------- 2 0.0 4.0 72 72
r 0.875 3 4 cbr 500 ------- 2 0.0 4.0 67 67
+ 0.875 0 2 cbr 500 ------- 2 0.0 4.0 75 75
- 0.875 0 2 cbr 500 ------- 2 0.0 4.0 75 75
r 0.876 2 3 cbr 500 ------- 2 0.0 4.0 70 70
+ 0.876 3 4 cbr 500 ------- 2 0.0 4.0 70 70
- 0.876 3 4 cbr 500 ------- 2 0.0 4.0 70 70
r 0.879 0 2 cbr 500 ------- 2 0.0 4.0 73 73
+ 0.879 2 3 cbr 500 ------- 2 0.0 4.0 73 73
- 0.879 2 3 cbr 500 ------- 2 0.0 4.0 73 73
r 0.88 3 4 cbr 500 ------- 2 0.0 4.0 68 68
+ 0.88 0 2 cbr 500 ------- 2 0.0 4.0 76 76
- 0.88 0 2 cbr 500 ------- 2 0.0 4.0 76 76
r 0.881 2 3 cbr 500 ------- 2 0.0 4.0 71 71
+ 0.881 3 4 cbr 500 ------- 2 0.0 4.0 71 71
- 0.881 3 4 cbr 500 ------- 2 0.0 4.0 71 71
r 0.884 0 2 cbr 500 ------- 2 0.0 4.0 74 74
+ 0.884 2 3 cbr 500 ------- 2 0.0 4.0 74 74
- 0.884 2 3 cbr 500 ------- 2 0.0 4.0 74 74
r 0.885 3 4 cbr 500 ------- 2 0.0 4.0 69 69
+ 0.885 0 2 cbr 500 ------- 2 0.0 4.0 77 77
- 0.885 0 2 cbr 500 ------- 2 0.0 4.0 77 77
r 0.886 2 3 cbr 500 ------- 2 0.0 4.0 72 72
+ 0.886 3 4 cbr 500 ------- 2 0.0 4.0 72 72
- 0.886 3 4 cbr 500 ------- 2 0.0 4.0 72 72
r 0.889 0 2 cbr 500 ------- 2 0.0 4.0 75 75
+ 0.889 2 3 cbr 500 ------- 2 0.0 4.0 75 75
- 0.889 2 3 cbr 500 ------- 2 0.0 4.0 75 75
r 0.89 3 4 cbr 500 ------- 2 0.0 4.0 70 70
+ 0.89 0 2 cbr 500 ------- 2 0.0 4.0 78 78
- 0.89 0 2 cbr 500 ------- 2 0.0 4.0 78 78
r 0.891 2 3 cbr 500 ------- 2 0.0 4.0 73 73
+ 0.891 3 4 cbr 500 ------- 2 0.0 4.0 73 73
- 0.891 3 4 cbr 500 ------- 2 0.0 4.0 73 73
r 0.894 0 2 cbr 500 ------- 2 0.0 4.0 76 76
+ 0.894 2 3 cbr 500 ------- 2 0.0 4.0 76 76
- 0.894 2 3 cbr 500 ------- 2 0.0 4.0 76 76
r 0.895 3 4 cbr 500 ------- 2 0.0 4.0 71 71
+ 0.895 0 2 cbr 500 ------- 2 0.0 4.0 79 79
- 0.895 0 2 cbr 500 ------- 2 0.0 4.0 79 79
r 0.896 2 3 cbr 500 ------- 2 0.0 4.0 74 74
+ 0.896 3 4 cbr 500 ------- 2 0.0 4.0 74 74
- 0.896 3 4 cbr 500 ------- 2 0.0 4.0 74 74